,10kW,60kW,100kW
1Mass,0.056757136608333335,0.0022975011999999697,0.002919529283333353
TGADSC,0.04845853231333334,0.000948960491666666,0.0010795263583333113
3Mass,0.042059522093333336,0.0005750887666666367,0.0015910884250000012
FTBT,0.010270516343333336,0.003733675674999936,0.0051428799083333135
TGA,0.099509812685,0.004110989133333343,0.0035190149749999788
2MassTGA,0.03763689078166667,0.0006194445666666609,0.0009796191916667189
BT,0.017342958658333338,0.0048946217749999766,0.006158656541666683
TGABT,0.0008097032616666666,0.006413609325000028,0.0058448322916666235
