,10kW,60kW,100kW
FTBT,0.016241305915000004,0.004056690774999976,0.005400465733333362
BT,0.027930817001666677,0.004553383508333334,0.005644912525000054
TGADSC,0.051922447655,0.0041376640833333915,0.004194423499999956
TGABT,0.00215791261,0.0008403837166667103,0.0010733040416666415
2Mass,0.06228245333666666,0.000952954433333301,0.0024021427166666886
