# Time [s], Mass [Kg]
1.000000000000000000e+00,1.000000000000000000e+00
2.000000000000000000e+00,1.000000000000000000e+00
3.000000000000000000e+00,1.000000000000000000e+00
4.000000000000000000e+00,1.000000000000000000e+00
5.000000000000000000e+00,1.000000000000000000e+00
6.000000000000000000e+00,1.000000000000000000e+00
7.000000000000000000e+00,1.000000000000000000e+00
8.000000000000000000e+00,1.000000000000000000e+00
9.000000000000000000e+00,9.999999400000000316e-01
1.000000000000000000e+01,9.999998799999999521e-01
1.100000000000000000e+01,9.999997000000000469e-01
1.200000000000000000e+01,9.999992800000000459e-01
1.300000000000000000e+01,9.999982699999999669e-01
1.400000000000000000e+01,9.999961299999999831e-01
1.500000000000000000e+01,9.999917699999999465e-01
1.600000000000000000e+01,9.999837900000000390e-01
1.700000000000000000e+01,9.999698999999999671e-01
1.800000000000000000e+01,9.999470700000000489e-01
1.900000000000000000e+01,9.999111899999999498e-01
2.000000000000000000e+01,9.998568300000000297e-01
2.100000000000000000e+01,9.997772600000000010e-01
2.200000000000000000e+01,9.996643100000000004e-01
2.300000000000000000e+01,9.995085000000000219e-01
2.400000000000000000e+01,9.992993500000000306e-01
2.500000000000000000e+01,9.990260600000000490e-01
2.600000000000000000e+01,9.986779099999999465e-01
2.700000000000000000e+01,9.982454800000000184e-01
2.800000000000000000e+01,9.977216100000000365e-01
2.900000000000000000e+01,9.971022600000000180e-01
3.000000000000000000e+01,9.963868299999999456e-01
3.100000000000000000e+01,9.955786500000000094e-01
3.200000000000000000e+01,9.946849300000000227e-01
3.300000000000000000e+01,9.926497899999999763e-01
3.400000000000000000e+01,9.905355000000000132e-01
3.500000000000000000e+01,9.883141500000000024e-01
3.600000000000000000e+01,9.863552500000000167e-01
3.700000000000000000e+01,9.847002000000000255e-01
3.800000000000000000e+01,9.834067199999999564e-01
3.900000000000000000e+01,9.822750700000000279e-01
4.000000000000000000e+01,9.809052900000000408e-01
4.100000000000000000e+01,9.793297600000000491e-01
4.200000000000000000e+01,9.776479599999999825e-01
4.300000000000000000e+01,9.759440999999999811e-01
4.400000000000000000e+01,9.742964499999999806e-01
4.500000000000000000e+01,9.727648500000000142e-01
4.600000000000000000e+01,9.713898899999999781e-01
4.700000000000000000e+01,9.701764000000000499e-01
4.800000000000000000e+01,9.690815200000000296e-01
4.900000000000000000e+01,9.680146600000000268e-01
5.000000000000000000e+01,9.668787699999999985e-01
5.100000000000000000e+01,9.656297600000000037e-01
5.200000000000000000e+01,9.642987299999999928e-01
5.300000000000000000e+01,9.629260299999999884e-01
5.400000000000000000e+01,9.615500000000000158e-01
5.500000000000000000e+01,9.602060900000000121e-01
5.600000000000000000e+01,9.589225099999999502e-01
5.700000000000000000e+01,9.577179599999999793e-01
5.800000000000000000e+01,9.565970900000000388e-01
5.900000000000000000e+01,9.555481700000000300e-01
6.000000000000000000e+01,9.545419200000000437e-01
6.100000000000000000e+01,9.535386000000000140e-01
6.200000000000000000e+01,9.525017099999999459e-01
6.300000000000000000e+01,9.514119599999999455e-01
6.400000000000000000e+01,9.502722000000000113e-01
6.500000000000000000e+01,9.490992400000000107e-01
6.600000000000000000e+01,9.479140000000000343e-01
6.700000000000000000e+01,9.467358000000000162e-01
6.800000000000000000e+01,9.455814399999999953e-01
6.900000000000000000e+01,9.444640300000000099e-01
7.000000000000000000e+01,9.433909700000000509e-01
7.100000000000000000e+01,9.423631399999999880e-01
7.200000000000000000e+01,9.413740600000000125e-01
7.300000000000000000e+01,9.404101400000000055e-01
7.400000000000000000e+01,9.394533000000000467e-01
7.500000000000000000e+01,9.384853800000000357e-01
7.600000000000000000e+01,9.374927899999999648e-01
7.700000000000000000e+01,9.364699699999999849e-01
7.800000000000000000e+01,9.354199199999999603e-01
7.900000000000000000e+01,9.343513300000000354e-01
8.000000000000000000e+01,9.332753999999999772e-01
8.100000000000000000e+01,9.322032900000000177e-01
8.200000000000000000e+01,9.311443000000000358e-01
8.300000000000000000e+01,9.301054500000000003e-01
8.400000000000000000e+01,9.290910999999999476e-01
8.500000000000000000e+01,9.281017200000000189e-01
8.600000000000000000e+01,9.271341600000000405e-01
8.700000000000000000e+01,9.261819100000000526e-01
8.800000000000000000e+01,9.252359900000000081e-01
8.900000000000000000e+01,9.242861300000000391e-01
9.000000000000000000e+01,9.233238099999999671e-01
9.100000000000000000e+01,9.223431300000000110e-01
9.200000000000000000e+01,9.213427299999999986e-01
9.300000000000000000e+01,9.203247399999999745e-01
9.400000000000000000e+01,9.192945999999999618e-01
9.500000000000000000e+01,9.182587300000000230e-01
9.600000000000000000e+01,9.172238700000000522e-01
9.700000000000000000e+01,9.161956300000000386e-01
9.800000000000000000e+01,9.151779399999999676e-01
9.900000000000000000e+01,9.141728900000000158e-01
1.000000000000000000e+02,9.131803499999999740e-01
1.010000000000000000e+02,9.121978899999999557e-01
1.020000000000000000e+02,9.112212699999999721e-01
1.030000000000000000e+02,9.102449400000000024e-01
1.040000000000000000e+02,9.092629599999999535e-01
1.050000000000000000e+02,9.082698200000000055e-01
1.060000000000000000e+02,9.072622700000000373e-01
1.070000000000000000e+02,9.062388500000000402e-01
1.080000000000000000e+02,9.052007199999999587e-01
1.090000000000000000e+02,9.041507800000000428e-01
1.100000000000000000e+02,9.030932799999999983e-01
1.110000000000000000e+02,9.020324299999999962e-01
1.120000000000000000e+02,9.009719499999999659e-01
1.130000000000000000e+02,8.999145600000000300e-01
1.140000000000000000e+02,8.988613500000000034e-01
1.150000000000000000e+02,8.978120699999999621e-01
1.160000000000000000e+02,8.967648700000000472e-01
1.170000000000000000e+02,8.957166699999999926e-01
1.180000000000000000e+02,8.946636900000000114e-01
1.190000000000000000e+02,8.936019499999999782e-01
1.200000000000000000e+02,8.925280599999999565e-01
1.210000000000000000e+02,8.914398000000000044e-01
1.220000000000000000e+02,8.903365100000000254e-01
1.230000000000000000e+02,8.892189900000000424e-01
1.240000000000000000e+02,8.880892400000000020e-01
1.250000000000000000e+02,8.869500200000000056e-01
1.260000000000000000e+02,8.858039399999999564e-01
1.270000000000000000e+02,8.846533899999999839e-01
1.280000000000000000e+02,8.834994999999999932e-01
1.290000000000000000e+02,8.823425200000000190e-01
1.300000000000000000e+02,8.811815400000000409e-01
1.310000000000000000e+02,8.800145400000000118e-01
1.320000000000000000e+02,8.788388400000000100e-01
1.330000000000000000e+02,8.776515700000000475e-01
1.340000000000000000e+02,8.764501199999999992e-01
1.350000000000000000e+02,8.752324599999999899e-01
1.360000000000000000e+02,8.739978699999999545e-01
1.370000000000000000e+02,8.727462900000000356e-01
1.380000000000000000e+02,8.714789200000000458e-01
1.390000000000000000e+02,8.701972999999999514e-01
1.400000000000000000e+02,8.689029799999999915e-01
1.410000000000000000e+02,8.675973399999999947e-01
1.420000000000000000e+02,8.662807300000000543e-01
1.430000000000000000e+02,8.649527999999999661e-01
1.440000000000000000e+02,8.636124099999999970e-01
1.450000000000000000e+02,8.622575999999999574e-01
1.460000000000000000e+02,8.608861599999999559e-01
1.470000000000000000e+02,8.594959399999999583e-01
1.480000000000000000e+02,8.580851000000000450e-01
1.490000000000000000e+02,8.566526800000000552e-01
1.500000000000000000e+02,8.551981400000000511e-01
1.510000000000000000e+02,8.537219799999999914e-01
1.520000000000000000e+02,8.522247699999999648e-01
1.530000000000000000e+02,8.507075899999999580e-01
1.540000000000000000e+02,8.491710399999999881e-01
1.550000000000000000e+02,8.476153600000000399e-01
1.560000000000000000e+02,8.460400700000000329e-01
1.570000000000000000e+02,8.444443299999999653e-01
1.580000000000000000e+02,8.428269600000000139e-01
1.590000000000000000e+02,8.411866399999999855e-01
1.600000000000000000e+02,8.395223000000000546e-01
1.610000000000000000e+02,8.378332899999999528e-01
1.620000000000000000e+02,8.361198300000000083e-01
1.630000000000000000e+02,8.343823599999999896e-01
1.640000000000000000e+02,8.326219900000000340e-01
1.650000000000000000e+02,8.308399899999999727e-01
1.660000000000000000e+02,8.290377300000000282e-01
1.670000000000000000e+02,8.272162100000000073e-01
1.680000000000000000e+02,8.253762700000000230e-01
1.690000000000000000e+02,8.235184599999999522e-01
1.700000000000000000e+02,8.216431699999999783e-01
1.710000000000000000e+02,8.197510199999999969e-01
1.720000000000000000e+02,8.178427799999999914e-01
1.730000000000000000e+02,8.159196399999999461e-01
1.740000000000000000e+02,8.139830799999999700e-01
1.750000000000000000e+02,8.120350800000000202e-01
1.760000000000000000e+02,8.100777900000000198e-01
1.770000000000000000e+02,8.081132199999999655e-01
1.780000000000000000e+02,8.061435200000000023e-01
1.790000000000000000e+02,8.041703700000000232e-01
1.800000000000000000e+02,8.021954300000000426e-01
1.810000000000000000e+02,8.002200099999999816e-01
1.820000000000000000e+02,7.982456100000000498e-01
1.830000000000000000e+02,7.962735899999999756e-01
1.840000000000000000e+02,7.943055599999999661e-01
1.850000000000000000e+02,7.923432599999999937e-01
1.860000000000000000e+02,7.903884100000000412e-01
1.870000000000000000e+02,7.884429099999999968e-01
1.880000000000000000e+02,7.865084399999999754e-01
1.890000000000000000e+02,7.845865499999999937e-01
1.900000000000000000e+02,7.826785400000000337e-01
1.910000000000000000e+02,7.807857999999999743e-01
1.920000000000000000e+02,7.789092699999999869e-01
1.930000000000000000e+02,7.770500200000000079e-01
1.940000000000000000e+02,7.752093100000000403e-01
1.950000000000000000e+02,7.733882699999999888e-01
1.960000000000000000e+02,7.715881500000000282e-01
1.970000000000000000e+02,7.698102000000000000e-01
1.980000000000000000e+02,7.680556200000000500e-01
1.990000000000000000e+02,7.663255900000000009e-01
2.000000000000000000e+02,7.646213200000000487e-01
2.010000000000000000e+02,7.629439199999999976e-01
2.020000000000000000e+02,7.612944200000000272e-01
2.030000000000000000e+02,7.596740699999999791e-01
2.040000000000000000e+02,7.580839999999999801e-01
2.050000000000000000e+02,7.565256999999999676e-01
2.060000000000000000e+02,7.550005300000000030e-01
2.070000000000000000e+02,7.535100599999999815e-01
2.080000000000000000e+02,7.520559999999999468e-01
2.090000000000000000e+02,7.506399799999999845e-01
2.100000000000000000e+02,7.492638799999999932e-01
2.110000000000000000e+02,7.479296300000000119e-01
2.120000000000000000e+02,7.466393099999999450e-01
2.130000000000000000e+02,7.453951800000000460e-01
2.140000000000000000e+02,7.441997500000000487e-01
2.150000000000000000e+02,7.430557599999999541e-01
2.160000000000000000e+02,7.419658900000000168e-01
2.170000000000000000e+02,7.409332400000000485e-01
2.180000000000000000e+02,7.399610300000000196e-01
2.190000000000000000e+02,7.390524099999999930e-01
2.200000000000000000e+02,7.382109199999999927e-01
2.210000000000000000e+02,7.374397499999999495e-01
2.220000000000000000e+02,7.367422000000000137e-01
2.230000000000000000e+02,7.361211199999999621e-01
2.240000000000000000e+02,7.355788399999999561e-01
2.250000000000000000e+02,7.351166000000000089e-01
2.260000000000000000e+02,7.347343600000000308e-01
2.270000000000000000e+02,7.344300700000000459e-01
2.280000000000000000e+02,7.341992899999999489e-01
2.290000000000000000e+02,7.340347200000000294e-01
2.300000000000000000e+02,7.339264800000000477e-01
2.310000000000000000e+02,7.338622200000000095e-01
2.320000000000000000e+02,7.338289599999999746e-01
2.330000000000000000e+02,7.338146599999999520e-01
2.340000000000000000e+02,7.338098899999999647e-01
2.350000000000000000e+02,7.338088200000000283e-01
2.360000000000000000e+02,7.338086999999999804e-01
2.370000000000000000e+02,7.338086999999999804e-01
2.380000000000000000e+02,7.338086999999999804e-01
2.390000000000000000e+02,7.338086999999999804e-01
2.400000000000000000e+02,7.338086999999999804e-01
2.410000000000000000e+02,7.338086999999999804e-01
2.420000000000000000e+02,7.338086999999999804e-01
2.430000000000000000e+02,7.338086999999999804e-01
2.440000000000000000e+02,7.338086999999999804e-01
2.450000000000000000e+02,7.338086999999999804e-01
2.460000000000000000e+02,7.338086999999999804e-01
2.470000000000000000e+02,7.338086999999999804e-01
2.480000000000000000e+02,7.338086999999999804e-01
2.490000000000000000e+02,7.338086999999999804e-01
2.500000000000000000e+02,7.338086999999999804e-01
2.510000000000000000e+02,7.338086999999999804e-01
2.520000000000000000e+02,7.338086999999999804e-01
2.530000000000000000e+02,7.338086999999999804e-01
2.540000000000000000e+02,7.338086999999999804e-01
2.550000000000000000e+02,7.338086999999999804e-01
2.560000000000000000e+02,7.338086999999999804e-01
2.570000000000000000e+02,7.338086999999999804e-01
2.580000000000000000e+02,7.338086999999999804e-01
2.590000000000000000e+02,7.338086999999999804e-01
2.600000000000000000e+02,7.338086999999999804e-01
2.610000000000000000e+02,7.338086999999999804e-01
2.620000000000000000e+02,7.338086999999999804e-01
2.630000000000000000e+02,7.338086999999999804e-01
2.640000000000000000e+02,7.338086999999999804e-01
2.650000000000000000e+02,7.338086999999999804e-01
2.660000000000000000e+02,7.338086999999999804e-01
2.670000000000000000e+02,7.338086999999999804e-01
2.680000000000000000e+02,7.338086999999999804e-01
2.690000000000000000e+02,7.338086999999999804e-01
2.700000000000000000e+02,7.338086999999999804e-01
2.710000000000000000e+02,7.338086999999999804e-01
2.720000000000000000e+02,7.338086999999999804e-01
2.730000000000000000e+02,7.338086999999999804e-01
2.740000000000000000e+02,7.338086999999999804e-01
2.750000000000000000e+02,7.338086999999999804e-01
2.760000000000000000e+02,7.338086999999999804e-01
2.770000000000000000e+02,7.338086999999999804e-01
2.780000000000000000e+02,7.338086999999999804e-01
2.790000000000000000e+02,7.338086999999999804e-01
2.800000000000000000e+02,7.338086999999999804e-01
2.810000000000000000e+02,7.338086999999999804e-01
2.820000000000000000e+02,7.338086999999999804e-01
2.830000000000000000e+02,7.338086999999999804e-01
2.840000000000000000e+02,7.338086999999999804e-01
2.850000000000000000e+02,7.338086999999999804e-01
2.860000000000000000e+02,7.338086999999999804e-01
2.870000000000000000e+02,7.338086999999999804e-01
2.880000000000000000e+02,7.338086999999999804e-01
2.890000000000000000e+02,7.338086999999999804e-01
2.900000000000000000e+02,7.338086999999999804e-01
2.910000000000000000e+02,7.338086999999999804e-01
2.920000000000000000e+02,7.338086999999999804e-01
2.930000000000000000e+02,7.338086999999999804e-01
2.940000000000000000e+02,7.338086999999999804e-01
2.950000000000000000e+02,7.338086999999999804e-01
2.960000000000000000e+02,7.338086999999999804e-01
2.970000000000000000e+02,7.338086999999999804e-01
2.980000000000000000e+02,7.338086999999999804e-01
2.990000000000000000e+02,7.338086999999999804e-01
3.000000000000000000e+02,7.338086999999999804e-01
3.010000000000000000e+02,7.338086999999999804e-01
3.020000000000000000e+02,7.338086999999999804e-01
3.030000000000000000e+02,7.338086999999999804e-01
3.040000000000000000e+02,7.338086999999999804e-01
3.050000000000000000e+02,7.338086999999999804e-01
3.060000000000000000e+02,7.338086999999999804e-01
3.070000000000000000e+02,7.338086999999999804e-01
3.080000000000000000e+02,7.338086999999999804e-01
3.090000000000000000e+02,7.338086999999999804e-01
3.100000000000000000e+02,7.338086999999999804e-01
3.110000000000000000e+02,7.338086999999999804e-01
3.120000000000000000e+02,7.338086999999999804e-01
3.130000000000000000e+02,7.338086999999999804e-01
3.140000000000000000e+02,7.338086999999999804e-01
3.150000000000000000e+02,7.338086999999999804e-01
3.160000000000000000e+02,7.338086999999999804e-01
3.170000000000000000e+02,7.338086999999999804e-01
3.180000000000000000e+02,7.338086999999999804e-01
3.190000000000000000e+02,7.338086999999999804e-01
3.200000000000000000e+02,7.338086999999999804e-01
3.210000000000000000e+02,7.338086999999999804e-01
3.220000000000000000e+02,7.338086999999999804e-01
3.230000000000000000e+02,7.338086999999999804e-01
3.240000000000000000e+02,7.338086999999999804e-01
3.250000000000000000e+02,7.338086999999999804e-01
3.260000000000000000e+02,7.338086999999999804e-01
3.270000000000000000e+02,7.338086999999999804e-01
3.280000000000000000e+02,7.338086999999999804e-01
3.290000000000000000e+02,7.338086999999999804e-01
3.300000000000000000e+02,7.338086999999999804e-01
3.310000000000000000e+02,7.338086999999999804e-01
3.320000000000000000e+02,7.338086999999999804e-01
3.330000000000000000e+02,7.338086999999999804e-01
3.340000000000000000e+02,7.338086999999999804e-01
3.350000000000000000e+02,7.338086999999999804e-01
3.360000000000000000e+02,7.338086999999999804e-01
3.370000000000000000e+02,7.338086999999999804e-01
3.380000000000000000e+02,7.338086999999999804e-01
3.390000000000000000e+02,7.338086999999999804e-01
3.400000000000000000e+02,7.338086999999999804e-01
3.410000000000000000e+02,7.338086999999999804e-01
3.420000000000000000e+02,7.338086999999999804e-01
3.430000000000000000e+02,7.338086999999999804e-01
3.440000000000000000e+02,7.338086999999999804e-01
3.450000000000000000e+02,7.338086999999999804e-01
3.460000000000000000e+02,7.338086999999999804e-01
3.470000000000000000e+02,7.338086999999999804e-01
3.480000000000000000e+02,7.338086999999999804e-01
3.490000000000000000e+02,7.338086999999999804e-01
3.500000000000000000e+02,7.338086999999999804e-01
3.510000000000000000e+02,7.338086999999999804e-01
3.520000000000000000e+02,7.338086999999999804e-01
3.530000000000000000e+02,7.338086999999999804e-01
3.540000000000000000e+02,7.338086999999999804e-01
3.550000000000000000e+02,7.338086999999999804e-01
3.560000000000000000e+02,7.338086999999999804e-01
3.570000000000000000e+02,7.338086999999999804e-01
3.580000000000000000e+02,7.338086999999999804e-01
3.590000000000000000e+02,7.338086999999999804e-01
3.600000000000000000e+02,7.338086999999999804e-01
3.610000000000000000e+02,7.338086999999999804e-01
3.620000000000000000e+02,7.338086999999999804e-01
3.630000000000000000e+02,7.338086999999999804e-01
3.640000000000000000e+02,7.338086999999999804e-01
3.650000000000000000e+02,7.338086999999999804e-01
3.660000000000000000e+02,7.338086999999999804e-01
3.670000000000000000e+02,7.338086999999999804e-01
3.680000000000000000e+02,7.338086999999999804e-01
3.690000000000000000e+02,7.338086999999999804e-01
3.700000000000000000e+02,7.338086999999999804e-01
3.710000000000000000e+02,7.338086999999999804e-01
3.720000000000000000e+02,7.338086999999999804e-01
3.730000000000000000e+02,7.338086999999999804e-01
3.740000000000000000e+02,7.338086999999999804e-01
3.750000000000000000e+02,7.338086999999999804e-01
3.760000000000000000e+02,7.338086999999999804e-01
3.770000000000000000e+02,7.338086999999999804e-01
3.780000000000000000e+02,7.338086999999999804e-01
3.790000000000000000e+02,7.338086999999999804e-01
3.800000000000000000e+02,7.338086999999999804e-01
3.810000000000000000e+02,7.338086999999999804e-01
3.820000000000000000e+02,7.338086999999999804e-01
3.830000000000000000e+02,7.338086999999999804e-01
3.840000000000000000e+02,7.338086999999999804e-01
3.850000000000000000e+02,7.338086999999999804e-01
3.860000000000000000e+02,7.338086999999999804e-01
3.870000000000000000e+02,7.338086999999999804e-01
3.880000000000000000e+02,7.338086999999999804e-01
3.890000000000000000e+02,7.338086999999999804e-01
3.900000000000000000e+02,7.338086999999999804e-01
3.910000000000000000e+02,7.338086999999999804e-01
3.920000000000000000e+02,7.338086999999999804e-01
3.930000000000000000e+02,7.338086999999999804e-01
3.940000000000000000e+02,7.338086999999999804e-01
3.950000000000000000e+02,7.338086999999999804e-01
3.960000000000000000e+02,7.338086999999999804e-01
3.970000000000000000e+02,7.338086999999999804e-01
3.980000000000000000e+02,7.338086999999999804e-01
3.990000000000000000e+02,7.338086999999999804e-01
4.000000000000000000e+02,7.338086999999999804e-01
4.010000000000000000e+02,7.338086999999999804e-01
4.020000000000000000e+02,7.338086999999999804e-01
4.030000000000000000e+02,7.338086999999999804e-01
4.040000000000000000e+02,7.338086999999999804e-01
4.050000000000000000e+02,7.338086999999999804e-01
4.060000000000000000e+02,7.338086999999999804e-01
4.070000000000000000e+02,7.338086999999999804e-01
4.080000000000000000e+02,7.338086999999999804e-01
4.090000000000000000e+02,7.338086999999999804e-01
4.100000000000000000e+02,7.338086999999999804e-01
4.110000000000000000e+02,7.338086999999999804e-01
4.120000000000000000e+02,7.338086999999999804e-01
4.130000000000000000e+02,7.338086999999999804e-01
4.140000000000000000e+02,7.338086999999999804e-01
4.150000000000000000e+02,7.338086999999999804e-01
4.160000000000000000e+02,7.338086999999999804e-01
4.170000000000000000e+02,7.338086999999999804e-01
4.180000000000000000e+02,7.338086999999999804e-01
4.190000000000000000e+02,7.338086999999999804e-01
4.200000000000000000e+02,7.338086999999999804e-01
4.210000000000000000e+02,7.338086999999999804e-01
4.220000000000000000e+02,7.338086999999999804e-01
4.230000000000000000e+02,7.338086999999999804e-01
4.240000000000000000e+02,7.338086999999999804e-01
4.250000000000000000e+02,7.338086999999999804e-01
4.260000000000000000e+02,7.338086999999999804e-01
4.270000000000000000e+02,7.338086999999999804e-01
4.280000000000000000e+02,7.338086999999999804e-01
4.290000000000000000e+02,7.338086999999999804e-01
4.300000000000000000e+02,7.338086999999999804e-01
4.310000000000000000e+02,7.338086999999999804e-01
4.320000000000000000e+02,7.338086999999999804e-01
4.330000000000000000e+02,7.338086999999999804e-01
4.340000000000000000e+02,7.338086999999999804e-01
4.350000000000000000e+02,7.338086999999999804e-01
4.360000000000000000e+02,7.338086999999999804e-01
4.370000000000000000e+02,7.338086999999999804e-01
4.380000000000000000e+02,7.338086999999999804e-01
4.390000000000000000e+02,7.338086999999999804e-01
4.400000000000000000e+02,7.338086999999999804e-01
4.410000000000000000e+02,7.338086999999999804e-01
4.420000000000000000e+02,7.338086999999999804e-01
4.430000000000000000e+02,7.338086999999999804e-01
4.440000000000000000e+02,7.338086999999999804e-01
4.450000000000000000e+02,7.338086999999999804e-01
4.460000000000000000e+02,7.338086999999999804e-01
4.470000000000000000e+02,7.338086999999999804e-01
4.480000000000000000e+02,7.338086999999999804e-01
4.490000000000000000e+02,7.338086999999999804e-01
4.500000000000000000e+02,7.338086999999999804e-01
4.510000000000000000e+02,7.338086999999999804e-01
4.520000000000000000e+02,7.338086999999999804e-01
4.530000000000000000e+02,7.338086999999999804e-01
4.540000000000000000e+02,7.338086999999999804e-01
4.550000000000000000e+02,7.338086999999999804e-01
4.560000000000000000e+02,7.338086999999999804e-01
4.570000000000000000e+02,7.338086999999999804e-01
4.580000000000000000e+02,7.338086999999999804e-01
4.590000000000000000e+02,7.338086999999999804e-01
4.600000000000000000e+02,7.338086999999999804e-01
4.610000000000000000e+02,7.338086999999999804e-01
4.620000000000000000e+02,7.338086999999999804e-01
4.630000000000000000e+02,7.338086999999999804e-01
4.640000000000000000e+02,7.338086999999999804e-01
4.650000000000000000e+02,7.338086999999999804e-01
4.660000000000000000e+02,7.338086999999999804e-01
4.670000000000000000e+02,7.338086999999999804e-01
4.680000000000000000e+02,7.338086999999999804e-01
4.690000000000000000e+02,7.338086999999999804e-01
4.700000000000000000e+02,7.338086999999999804e-01
4.710000000000000000e+02,7.338086999999999804e-01
4.720000000000000000e+02,7.338086999999999804e-01
4.730000000000000000e+02,7.338086999999999804e-01
4.740000000000000000e+02,7.338086999999999804e-01
4.750000000000000000e+02,7.338086999999999804e-01
4.760000000000000000e+02,7.338086999999999804e-01
4.770000000000000000e+02,7.338086999999999804e-01
4.780000000000000000e+02,7.338086999999999804e-01
4.790000000000000000e+02,7.338086999999999804e-01
4.800000000000000000e+02,7.338086999999999804e-01
4.810000000000000000e+02,7.338086999999999804e-01
4.820000000000000000e+02,7.338086999999999804e-01
4.830000000000000000e+02,7.338086999999999804e-01
4.840000000000000000e+02,7.338086999999999804e-01
4.850000000000000000e+02,7.338086999999999804e-01
4.860000000000000000e+02,7.338086999999999804e-01
4.870000000000000000e+02,7.338086999999999804e-01
4.880000000000000000e+02,7.338086999999999804e-01
4.890000000000000000e+02,7.338086999999999804e-01
4.900000000000000000e+02,7.338086999999999804e-01
4.910000000000000000e+02,7.338086999999999804e-01
4.920000000000000000e+02,7.338086999999999804e-01
4.930000000000000000e+02,7.338086999999999804e-01
4.940000000000000000e+02,7.338086999999999804e-01
4.950000000000000000e+02,7.338086999999999804e-01
4.960000000000000000e+02,7.338086999999999804e-01
4.970000000000000000e+02,7.338086999999999804e-01
4.980000000000000000e+02,7.338086999999999804e-01
4.990000000000000000e+02,7.338086999999999804e-01
5.000000000000000000e+02,7.338086999999999804e-01
5.010000000000000000e+02,7.338086999999999804e-01
5.020000000000000000e+02,7.338086999999999804e-01
5.030000000000000000e+02,7.338086999999999804e-01
5.040000000000000000e+02,7.338086999999999804e-01
5.050000000000000000e+02,7.338086999999999804e-01
5.060000000000000000e+02,7.338086999999999804e-01
5.070000000000000000e+02,7.338086999999999804e-01
5.080000000000000000e+02,7.338086999999999804e-01
5.090000000000000000e+02,7.338086999999999804e-01
5.100000000000000000e+02,7.338086999999999804e-01
5.110000000000000000e+02,7.338086999999999804e-01
5.120000000000000000e+02,7.338086999999999804e-01
5.130000000000000000e+02,7.338086999999999804e-01
5.140000000000000000e+02,7.338086999999999804e-01
5.150000000000000000e+02,7.338086999999999804e-01
5.160000000000000000e+02,7.338086999999999804e-01
5.170000000000000000e+02,7.338086999999999804e-01
5.180000000000000000e+02,7.338086999999999804e-01
5.190000000000000000e+02,7.338086999999999804e-01
5.200000000000000000e+02,7.338086999999999804e-01
5.210000000000000000e+02,7.338086999999999804e-01
5.220000000000000000e+02,7.338086999999999804e-01
5.230000000000000000e+02,7.338086999999999804e-01
5.240000000000000000e+02,7.338086999999999804e-01
5.250000000000000000e+02,7.338086999999999804e-01
5.260000000000000000e+02,7.338086999999999804e-01
5.270000000000000000e+02,7.338086999999999804e-01
5.280000000000000000e+02,7.338086999999999804e-01
5.290000000000000000e+02,7.338086999999999804e-01
5.300000000000000000e+02,7.338086999999999804e-01
5.310000000000000000e+02,7.338086999999999804e-01
5.320000000000000000e+02,7.338086999999999804e-01
5.330000000000000000e+02,7.338086999999999804e-01
5.340000000000000000e+02,7.338086999999999804e-01
5.350000000000000000e+02,7.338086999999999804e-01
5.360000000000000000e+02,7.338086999999999804e-01
5.370000000000000000e+02,7.338086999999999804e-01
5.380000000000000000e+02,7.338086999999999804e-01
5.390000000000000000e+02,7.338086999999999804e-01
5.400000000000000000e+02,7.338086999999999804e-01
5.410000000000000000e+02,7.338086999999999804e-01
5.420000000000000000e+02,7.338086999999999804e-01
5.430000000000000000e+02,7.338086999999999804e-01
5.440000000000000000e+02,7.338086999999999804e-01
5.450000000000000000e+02,7.338086999999999804e-01
5.460000000000000000e+02,7.338086999999999804e-01
5.470000000000000000e+02,7.338086999999999804e-01
5.480000000000000000e+02,7.338086999999999804e-01
5.490000000000000000e+02,7.338086999999999804e-01
5.500000000000000000e+02,7.338086999999999804e-01
5.510000000000000000e+02,7.338086999999999804e-01
5.520000000000000000e+02,7.338086999999999804e-01
5.530000000000000000e+02,7.338086999999999804e-01
5.540000000000000000e+02,7.338086999999999804e-01
5.550000000000000000e+02,7.338086999999999804e-01
5.560000000000000000e+02,7.338086999999999804e-01
5.570000000000000000e+02,7.338086999999999804e-01
5.580000000000000000e+02,7.338086999999999804e-01
5.590000000000000000e+02,7.338086999999999804e-01
5.600000000000000000e+02,7.338086999999999804e-01
5.610000000000000000e+02,7.338086999999999804e-01
5.620000000000000000e+02,7.338086999999999804e-01
5.630000000000000000e+02,7.338086999999999804e-01
5.640000000000000000e+02,7.338086999999999804e-01
5.650000000000000000e+02,7.338086999999999804e-01
5.660000000000000000e+02,7.338086999999999804e-01
5.670000000000000000e+02,7.338086999999999804e-01
5.680000000000000000e+02,7.338086999999999804e-01
5.690000000000000000e+02,7.338086999999999804e-01
5.700000000000000000e+02,7.338086999999999804e-01
5.710000000000000000e+02,7.338086999999999804e-01
5.720000000000000000e+02,7.338086999999999804e-01
5.730000000000000000e+02,7.338086999999999804e-01
5.740000000000000000e+02,7.338086999999999804e-01
5.750000000000000000e+02,7.338086999999999804e-01
5.760000000000000000e+02,7.338086999999999804e-01
5.770000000000000000e+02,7.338086999999999804e-01
5.780000000000000000e+02,7.338086999999999804e-01
5.790000000000000000e+02,7.338086999999999804e-01
5.800000000000000000e+02,7.338086999999999804e-01
5.810000000000000000e+02,7.338086999999999804e-01
5.820000000000000000e+02,7.338086999999999804e-01
5.830000000000000000e+02,7.338086999999999804e-01
5.840000000000000000e+02,7.338086999999999804e-01
5.850000000000000000e+02,7.338086999999999804e-01
5.860000000000000000e+02,7.338086999999999804e-01
5.870000000000000000e+02,7.338086999999999804e-01
5.880000000000000000e+02,7.338086999999999804e-01
5.890000000000000000e+02,7.338086999999999804e-01
5.900000000000000000e+02,7.338086999999999804e-01
5.910000000000000000e+02,7.338086999999999804e-01
5.920000000000000000e+02,7.338086999999999804e-01
5.930000000000000000e+02,7.338086999999999804e-01
5.940000000000000000e+02,7.338086999999999804e-01
5.950000000000000000e+02,7.338086999999999804e-01
5.960000000000000000e+02,7.338086999999999804e-01
5.970000000000000000e+02,7.338086999999999804e-01
5.980000000000000000e+02,7.338086999999999804e-01
5.990000000000000000e+02,7.338086999999999804e-01