,10kW,60kW,100kW
1Mass,0.17511676241500004,0.011999167791666666,0.01071806885833334
TGADSC,0.016909838143333335,0.0010817298666666653,0.001006892108333335
3Mass,0.001581266051666668,0.00011787021666666629,6.240820833333474e-05
FTBT,0.0008221454383333334,1.84462583333328e-05,4.332680833333269e-05
TGA,0.001103484138333333,0.0005703124833333314,0.0002813572750000018
BT,0.0002498364916666679,0.0003579459416666668,0.000629723675
TGABT,0.0014799614949999999,0.00041693754166666696,0.00014495903333333577
2Mass,0.0017272738866666677,0.00023032804166666558,5.6247933333335536e-05
2MassTGA,0.002544656071666668,9.877114166666627e-05,6.015985000000048e-05
