# Time [s], Temperature [C]
1.000000000000000000e+00,2.499997099999999861e+01
2.000000000000000000e+00,3.327902199999999766e+01
3.000000000000000000e+00,3.805644199999999699e+01
4.000000000000000000e+00,4.195819099999999935e+01
5.000000000000000000e+00,4.522970999999999719e+01
6.000000000000000000e+00,4.811202999999999719e+01
7.000000000000000000e+00,5.070140099999999705e+01
8.000000000000000000e+00,5.306776800000000094e+01
9.000000000000000000e+00,5.525451999999999941e+01
1.000000000000000000e+01,5.729377699999999862e+01
1.100000000000000000e+01,5.920875900000000058e+01
1.200000000000000000e+01,6.101707499999999840e+01
1.300000000000000000e+01,6.273277300000000167e+01
1.400000000000000000e+01,6.436695100000000025e+01
1.500000000000000000e+01,6.592881800000000680e+01
1.600000000000000000e+01,6.742577400000000409e+01
1.700000000000000000e+01,6.886417400000000555e+01
1.800000000000000000e+01,7.024954999999999927e+01
1.900000000000000000e+01,7.158599900000000105e+01
2.000000000000000000e+01,7.287813599999999781e+01
2.100000000000000000e+01,7.412903599999999926e+01
2.200000000000000000e+01,7.534159900000000221e+01
2.300000000000000000e+01,7.651876099999999781e+01
2.400000000000000000e+01,7.766287199999999302e+01
2.500000000000000000e+01,7.877608499999999481e+01
2.600000000000000000e+01,7.986041299999999410e+01
2.700000000000000000e+01,8.091723600000000260e+01
2.800000000000000000e+01,8.194825699999999813e+01
2.900000000000000000e+01,8.295533799999999758e+01
3.000000000000000000e+01,8.393907199999999591e+01
3.100000000000000000e+01,8.490101599999999848e+01
3.200000000000000000e+01,8.584232299999999327e+01
3.300000000000000000e+01,8.676398500000000524e+01
3.400000000000000000e+01,8.766662599999999372e+01
3.500000000000000000e+01,8.855149099999999862e+01
3.600000000000000000e+01,8.941923500000000047e+01
3.700000000000000000e+01,9.027036300000000324e+01
3.800000000000000000e+01,9.110603299999999649e+01
3.900000000000000000e+01,9.192659799999999848e+01
4.000000000000000000e+01,9.273268899999999348e+01
4.100000000000000000e+01,9.352498599999999840e+01
4.200000000000000000e+01,9.430385599999999613e+01
4.300000000000000000e+01,9.506984699999999577e+01
4.400000000000000000e+01,9.582353999999999417e+01
4.500000000000000000e+01,9.656524699999999939e+01
4.600000000000000000e+01,9.729542499999999450e+01
4.700000000000000000e+01,9.801456500000000460e+01
4.800000000000000000e+01,9.872292299999999443e+01
4.900000000000000000e+01,9.942105100000000562e+01
5.000000000000000000e+01,1.001093099999999936e+02
5.100000000000000000e+01,1.007877199999999931e+02
5.200000000000000000e+01,1.014567600000000027e+02
5.300000000000000000e+01,1.021170299999999997e+02
5.400000000000000000e+01,1.027682499999999948e+02
5.500000000000000000e+01,1.034109899999999982e+02
5.600000000000000000e+01,1.040456700000000012e+02
5.700000000000000000e+01,1.046723000000000070e+02
5.800000000000000000e+01,1.052911399999999986e+02
5.900000000000000000e+01,1.059027600000000007e+02
6.000000000000000000e+01,1.065067899999999952e+02
6.100000000000000000e+01,1.071040200000000056e+02
6.200000000000000000e+01,1.076942399999999935e+02
6.300000000000000000e+01,1.082778500000000008e+02
6.400000000000000000e+01,1.088550000000000040e+02
6.500000000000000000e+01,1.094259700000000066e+02
6.600000000000000000e+01,1.099907900000000041e+02
6.700000000000000000e+01,1.105498300000000000e+02
6.800000000000000000e+01,1.111030399999999929e+02
6.900000000000000000e+01,1.116506200000000035e+02
7.000000000000000000e+01,1.121927299999999974e+02
7.100000000000000000e+01,1.127296000000000049e+02
7.200000000000000000e+01,1.132613300000000010e+02
7.300000000000000000e+01,1.137880899999999968e+02
7.400000000000000000e+01,1.143099799999999959e+02
7.500000000000000000e+01,1.148270700000000062e+02
7.600000000000000000e+01,1.153396299999999997e+02
7.700000000000000000e+01,1.158477000000000032e+02
7.800000000000000000e+01,1.163513200000000012e+02
7.900000000000000000e+01,1.168507299999999987e+02
8.000000000000000000e+01,1.173461499999999944e+02
8.100000000000000000e+01,1.178372300000000052e+02
8.200000000000000000e+01,1.183245500000000021e+02
8.300000000000000000e+01,1.188081499999999977e+02
8.400000000000000000e+01,1.192879800000000046e+02
8.500000000000000000e+01,1.197639999999999958e+02
8.600000000000000000e+01,1.202365499999999940e+02
8.700000000000000000e+01,1.207057499999999948e+02
8.800000000000000000e+01,1.211715200000000010e+02
8.900000000000000000e+01,1.216340299999999957e+02
9.000000000000000000e+01,1.220932099999999991e+02
9.100000000000000000e+01,1.225492500000000007e+02
9.200000000000000000e+01,1.230024099999999976e+02
9.300000000000000000e+01,1.234525000000000006e+02
9.400000000000000000e+01,1.238996499999999941e+02
9.500000000000000000e+01,1.243439400000000035e+02
9.600000000000000000e+01,1.247855100000000022e+02
9.700000000000000000e+01,1.252243799999999965e+02
9.800000000000000000e+01,1.256606100000000055e+02
9.900000000000000000e+01,1.260941100000000006e+02
1.000000000000000000e+02,1.265252200000000045e+02
1.010000000000000000e+02,1.269539000000000044e+02
1.020000000000000000e+02,1.273801299999999941e+02
1.030000000000000000e+02,1.278038300000000049e+02
1.040000000000000000e+02,1.282253699999999981e+02
1.050000000000000000e+02,1.286446100000000001e+02
1.060000000000000000e+02,1.290616100000000017e+02
1.070000000000000000e+02,1.294765199999999936e+02
1.080000000000000000e+02,1.298892999999999915e+02
1.090000000000000000e+02,1.302999700000000018e+02
1.100000000000000000e+02,1.307086899999999901e+02
1.110000000000000000e+02,1.311153700000000129e+02
1.120000000000000000e+02,1.315201099999999883e+02
1.130000000000000000e+02,1.319229899999999986e+02
1.140000000000000000e+02,1.323239599999999996e+02
1.150000000000000000e+02,1.327230500000000006e+02
1.160000000000000000e+02,1.331203600000000051e+02
1.170000000000000000e+02,1.335157900000000097e+02
1.180000000000000000e+02,1.339095599999999990e+02
1.190000000000000000e+02,1.343016800000000046e+02
1.200000000000000000e+02,1.346921199999999885e+02
1.210000000000000000e+02,1.350809299999999951e+02
1.220000000000000000e+02,1.354681899999999928e+02
1.230000000000000000e+02,1.358538399999999911e+02
1.240000000000000000e+02,1.362379200000000026e+02
1.250000000000000000e+02,1.366205600000000118e+02
1.260000000000000000e+02,1.370016599999999869e+02
1.270000000000000000e+02,1.373812900000000070e+02
1.280000000000000000e+02,1.377595200000000091e+02
1.290000000000000000e+02,1.381363100000000088e+02
1.300000000000000000e+02,1.385116899999999873e+02
1.310000000000000000e+02,1.388857600000000048e+02
1.320000000000000000e+02,1.392584200000000010e+02
1.330000000000000000e+02,1.396297600000000045e+02
1.340000000000000000e+02,1.399999699999999905e+02
1.350000000000000000e+02,1.403687899999999900e+02
1.360000000000000000e+02,1.407363000000000000e+02
1.370000000000000000e+02,1.411025799999999890e+02
1.380000000000000000e+02,1.414676100000000076e+02
1.390000000000000000e+02,1.418314699999999959e+02
1.400000000000000000e+02,1.421941099999999949e+02
1.410000000000000000e+02,1.425555300000000045e+02
1.420000000000000000e+02,1.429157899999999870e+02
1.430000000000000000e+02,1.432749499999999898e+02
1.440000000000000000e+02,1.436329299999999876e+02
1.450000000000000000e+02,1.439898100000000056e+02
1.460000000000000000e+02,1.443456299999999999e+02
1.470000000000000000e+02,1.447003300000000081e+02
1.480000000000000000e+02,1.450539400000000114e+02
1.490000000000000000e+02,1.454065600000000131e+02
1.500000000000000000e+02,1.457581600000000037e+02
1.510000000000000000e+02,1.461087499999999864e+02
1.520000000000000000e+02,1.464583100000000115e+02
1.530000000000000000e+02,1.468067900000000066e+02
1.540000000000000000e+02,1.471542800000000000e+02
1.550000000000000000e+02,1.475008500000000140e+02
1.560000000000000000e+02,1.478464400000000012e+02
1.570000000000000000e+02,1.481910200000000088e+02
1.580000000000000000e+02,1.485347600000000057e+02
1.590000000000000000e+02,1.488774300000000039e+02
1.600000000000000000e+02,1.492191599999999880e+02
1.610000000000000000e+02,1.495601200000000119e+02
1.620000000000000000e+02,1.499000499999999931e+02
1.630000000000000000e+02,1.502390399999999886e+02
1.640000000000000000e+02,1.505771599999999921e+02
1.650000000000000000e+02,1.509144400000000132e+02
1.660000000000000000e+02,1.512507500000000107e+02
1.670000000000000000e+02,1.515862600000000100e+02
1.680000000000000000e+02,1.519208999999999889e+02
1.690000000000000000e+02,1.522546499999999980e+02
1.700000000000000000e+02,1.525877399999999966e+02
1.710000000000000000e+02,1.529198599999999999e+02
1.720000000000000000e+02,1.532511900000000082e+02
1.730000000000000000e+02,1.535816199999999867e+02
1.740000000000000000e+02,1.539112100000000112e+02
1.750000000000000000e+02,1.542399399999999901e+02
1.760000000000000000e+02,1.545679199999999867e+02
1.770000000000000000e+02,1.548951999999999884e+02
1.780000000000000000e+02,1.552216899999999953e+02
1.790000000000000000e+02,1.555472900000000038e+02
1.800000000000000000e+02,1.558720899999999858e+02
1.810000000000000000e+02,1.561960599999999886e+02
1.820000000000000000e+02,1.565192900000000122e+02
1.830000000000000000e+02,1.568418100000000095e+02
1.840000000000000000e+02,1.571635899999999992e+02
1.850000000000000000e+02,1.574846200000000067e+02
1.860000000000000000e+02,1.578048599999999908e+02
1.870000000000000000e+02,1.581243100000000084e+02
1.880000000000000000e+02,1.584431299999999965e+02
1.890000000000000000e+02,1.587610599999999863e+02
1.900000000000000000e+02,1.590783800000000099e+02
1.910000000000000000e+02,1.593949399999999912e+02
1.920000000000000000e+02,1.597107200000000091e+02
1.930000000000000000e+02,1.600257900000000006e+02
1.940000000000000000e+02,1.603402600000000007e+02
1.950000000000000000e+02,1.606538400000000024e+02
1.960000000000000000e+02,1.609668299999999874e+02
1.970000000000000000e+02,1.612790500000000122e+02
1.980000000000000000e+02,1.615906099999999981e+02
1.990000000000000000e+02,1.619013699999999858e+02
2.000000000000000000e+02,1.622115499999999884e+02
2.010000000000000000e+02,1.625210600000000056e+02
2.020000000000000000e+02,1.628297699999999963e+02
2.030000000000000000e+02,1.631378899999999987e+02
2.040000000000000000e+02,1.634451899999999966e+02
2.050000000000000000e+02,1.637518300000000124e+02
2.060000000000000000e+02,1.640579500000000053e+02
2.070000000000000000e+02,1.643633600000000001e+02
2.080000000000000000e+02,1.646679699999999968e+02
2.090000000000000000e+02,1.649719800000000021e+02
2.100000000000000000e+02,1.652752499999999998e+02
2.110000000000000000e+02,1.655779899999999998e+02
2.120000000000000000e+02,1.658800999999999988e+02
2.130000000000000000e+02,1.661813799999999901e+02
2.140000000000000000e+02,1.664820300000000088e+02
2.150000000000000000e+02,1.667820700000000045e+02
2.160000000000000000e+02,1.670815900000000056e+02
2.170000000000000000e+02,1.673803100000000086e+02
2.180000000000000000e+02,1.676784499999999980e+02
2.190000000000000000e+02,1.679758600000000115e+02
2.200000000000000000e+02,1.682726700000000051e+02
2.210000000000000000e+02,1.685689199999999914e+02
2.220000000000000000e+02,1.688644899999999893e+02
2.230000000000000000e+02,1.691593900000000019e+02
2.240000000000000000e+02,1.694537400000000105e+02
2.250000000000000000e+02,1.697474100000000021e+02
2.260000000000000000e+02,1.700404100000000085e+02
2.270000000000000000e+02,1.703328099999999949e+02
2.280000000000000000e+02,1.706246299999999962e+02
2.290000000000000000e+02,1.709158199999999965e+02
2.300000000000000000e+02,1.712063799999999958e+02
2.310000000000000000e+02,1.714962500000000034e+02
2.320000000000000000e+02,1.717855999999999881e+02
2.330000000000000000e+02,1.720743999999999971e+02
2.340000000000000000e+02,1.723624700000000018e+02
2.350000000000000000e+02,1.726499599999999930e+02
2.360000000000000000e+02,1.729368100000000084e+02
2.370000000000000000e+02,1.732231800000000135e+02
2.380000000000000000e+02,1.735088199999999858e+02
2.390000000000000000e+02,1.737939299999999889e+02
2.400000000000000000e+02,1.740783099999999877e+02
2.410000000000000000e+02,1.743622300000000109e+02
2.420000000000000000e+02,1.746456100000000049e+02
2.430000000000000000e+02,1.749282200000000103e+02
2.440000000000000000e+02,1.752102399999999989e+02
2.450000000000000000e+02,1.754918199999999899e+02
2.460000000000000000e+02,1.757727999999999895e+02
2.470000000000000000e+02,1.760530500000000131e+02
2.480000000000000000e+02,1.763327800000000138e+02
2.490000000000000000e+02,1.766120600000000138e+02
2.500000000000000000e+02,1.768905900000000031e+02
2.510000000000000000e+02,1.771685799999999915e+02
2.520000000000000000e+02,1.774459400000000073e+02
2.530000000000000000e+02,1.777228900000000067e+02
2.540000000000000000e+02,1.779991599999999892e+02
2.550000000000000000e+02,1.782747999999999990e+02
2.560000000000000000e+02,1.785500000000000114e+02
2.570000000000000000e+02,1.788245499999999879e+02
2.580000000000000000e+02,1.790985100000000045e+02
2.590000000000000000e+02,1.793719000000000108e+02
2.600000000000000000e+02,1.796447900000000004e+02
2.610000000000000000e+02,1.799170499999999890e+02
2.620000000000000000e+02,1.801887999999999863e+02
2.630000000000000000e+02,1.804600100000000111e+02
2.640000000000000000e+02,1.807305800000000033e+02
2.650000000000000000e+02,1.810005800000000136e+02
2.660000000000000000e+02,1.812701299999999947e+02
2.670000000000000000e+02,1.815390500000000031e+02
2.680000000000000000e+02,1.818073899999999981e+02
2.690000000000000000e+02,1.820752699999999891e+02
2.700000000000000000e+02,1.823425799999999981e+02
2.710000000000000000e+02,1.826092500000000030e+02
2.720000000000000000e+02,1.828754900000000134e+02
2.730000000000000000e+02,1.831411600000000135e+02
2.740000000000000000e+02,1.834062199999999905e+02
2.750000000000000000e+02,1.836707900000000109e+02
2.760000000000000000e+02,1.839347099999999955e+02
2.770000000000000000e+02,1.841982299999999952e+02
2.780000000000000000e+02,1.844612099999999941e+02
2.790000000000000000e+02,1.847235400000000141e+02
2.800000000000000000e+02,1.849854300000000080e+02
2.810000000000000000e+02,1.852468100000000106e+02
2.820000000000000000e+02,1.855075099999999964e+02
2.830000000000000000e+02,1.857677899999999909e+02
2.840000000000000000e+02,1.860275900000000036e+02
2.850000000000000000e+02,1.862867099999999994e+02
2.860000000000000000e+02,1.865454100000000039e+02
2.870000000000000000e+02,1.868036199999999951e+02
2.880000000000000000e+02,1.870611600000000010e+02
2.890000000000000000e+02,1.873182799999999872e+02
2.900000000000000000e+02,1.875749399999999980e+02
2.910000000000000000e+02,1.878308900000000108e+02
2.920000000000000000e+02,1.880864899999999977e+02
2.930000000000000000e+02,1.883414899999999932e+02
2.940000000000000000e+02,1.885959300000000098e+02
2.950000000000000000e+02,1.888499799999999880e+02
2.960000000000000000e+02,1.891034199999999998e+02
2.970000000000000000e+02,1.893563399999999888e+02
2.980000000000000000e+02,1.896088399999999865e+02
2.990000000000000000e+02,1.898607499999999959e+02
3.000000000000000000e+02,1.901121400000000108e+02
3.010000000000000000e+02,1.903631100000000060e+02
3.020000000000000000e+02,1.906134900000000130e+02
3.030000000000000000e+02,1.908634000000000128e+02
3.040000000000000000e+02,1.911127600000000086e+02
3.050000000000000000e+02,1.913616600000000005e+02
3.060000000000000000e+02,1.916100600000000043e+02
3.070000000000000000e+02,1.918579300000000103e+02
3.080000000000000000e+02,1.921053200000000061e+02
3.090000000000000000e+02,1.923523099999999886e+02
3.100000000000000000e+02,1.925986000000000047e+02
3.110000000000000000e+02,1.928445299999999918e+02
3.120000000000000000e+02,1.930899400000000128e+02
3.130000000000000000e+02,1.933347799999999950e+02
3.140000000000000000e+02,1.935792199999999923e+02
3.150000000000000000e+02,1.938231399999999951e+02
3.160000000000000000e+02,1.940664999999999907e+02
3.170000000000000000e+02,1.943094299999999919e+02
3.180000000000000000e+02,1.945518600000000049e+02
3.190000000000000000e+02,1.947937900000000013e+02
3.200000000000000000e+02,1.950352900000000034e+02
3.210000000000000000e+02,1.952762299999999982e+02
3.220000000000000000e+02,1.955166800000000080e+02
3.230000000000000000e+02,1.957566999999999950e+02
3.240000000000000000e+02,1.959962299999999971e+02
3.250000000000000000e+02,1.962351400000000012e+02
3.260000000000000000e+02,1.964737399999999923e+02
3.270000000000000000e+02,1.967118100000000140e+02
3.280000000000000000e+02,1.969493600000000129e+02
3.290000000000000000e+02,1.971864799999999889e+02
3.300000000000000000e+02,1.974230000000000018e+02
3.310000000000000000e+02,1.976591500000000110e+02
3.320000000000000000e+02,1.978948399999999879e+02
3.330000000000000000e+02,1.981298800000000142e+02
3.340000000000000000e+02,1.983646200000000022e+02
3.350000000000000000e+02,1.985988000000000113e+02
3.360000000000000000e+02,1.988325199999999882e+02
3.370000000000000000e+02,1.990657699999999863e+02
3.380000000000000000e+02,1.992984899999999868e+02
3.390000000000000000e+02,1.995308699999999931e+02
3.400000000000000000e+02,1.997625999999999920e+02
3.410000000000000000e+02,1.999939899999999966e+02
3.420000000000000000e+02,2.002248700000000099e+02
3.430000000000000000e+02,2.004551500000000033e+02
3.440000000000000000e+02,2.006851299999999867e+02
3.450000000000000000e+02,2.009144900000000007e+02
3.460000000000000000e+02,2.011435099999999920e+02
3.470000000000000000e+02,2.013719299999999919e+02
3.480000000000000000e+02,2.015999799999999880e+02
3.490000000000000000e+02,2.018274700000000053e+02
3.500000000000000000e+02,2.020544600000000059e+02
3.510000000000000000e+02,2.022811000000000092e+02
3.520000000000000000e+02,2.025071299999999894e+02
3.530000000000000000e+02,2.027328599999999881e+02
3.540000000000000000e+02,2.029579300000000046e+02
3.550000000000000000e+02,2.031825300000000141e+02
3.560000000000000000e+02,2.034068300000000136e+02
3.570000000000000000e+02,2.036304800000000057e+02
3.580000000000000000e+02,2.038537900000000036e+02
3.590000000000000000e+02,2.040765100000000132e+02
3.600000000000000000e+02,2.042988699999999938e+02
3.610000000000000000e+02,2.045206100000000049e+02
3.620000000000000000e+02,2.047419299999999964e+02
3.630000000000000000e+02,2.049628399999999999e+02
3.640000000000000000e+02,2.051831200000000024e+02
3.650000000000000000e+02,2.054031500000000108e+02
3.660000000000000000e+02,2.056225100000000054e+02
3.670000000000000000e+02,2.058415400000000091e+02
3.680000000000000000e+02,2.060599799999999959e+02
3.690000000000000000e+02,2.062779700000000105e+02
3.700000000000000000e+02,2.064954700000000116e+02
3.710000000000000000e+02,2.067125100000000089e+02
3.720000000000000000e+02,2.069291399999999896e+02
3.730000000000000000e+02,2.071451600000000042e+02
3.740000000000000000e+02,2.073608700000000056e+02
3.750000000000000000e+02,2.075759400000000028e+02
3.760000000000000000e+02,2.077906299999999931e+02
3.770000000000000000e+02,2.080047600000000045e+02
3.780000000000000000e+02,2.082184399999999869e+02
3.790000000000000000e+02,2.084316300000000126e+02
3.800000000000000000e+02,2.086444099999999935e+02
3.810000000000000000e+02,2.088566600000000051e+02
3.820000000000000000e+02,2.090683699999999874e+02
3.830000000000000000e+02,2.092797500000000070e+02
3.840000000000000000e+02,2.094904899999999941e+02
3.850000000000000000e+02,2.097008800000000122e+02
3.860000000000000000e+02,2.099107099999999946e+02
3.870000000000000000e+02,2.101201299999999890e+02
3.880000000000000000e+02,2.103289300000000139e+02
3.890000000000000000e+02,2.105373700000000099e+02
3.900000000000000000e+02,2.107452399999999955e+02
3.910000000000000000e+02,2.109526700000000119e+02
3.920000000000000000e+02,2.111596399999999960e+02
3.930000000000000000e+02,2.113660999999999888e+02
3.940000000000000000e+02,2.115720699999999965e+02
3.950000000000000000e+02,2.117776200000000131e+02
3.960000000000000000e+02,2.119826400000000035e+02
3.970000000000000000e+02,2.121871600000000058e+02
3.980000000000000000e+02,2.123912500000000136e+02
3.990000000000000000e+02,2.125948300000000017e+02
4.000000000000000000e+02,2.127979100000000017e+02
4.010000000000000000e+02,2.130005299999999977e+02
4.020000000000000000e+02,2.132026400000000024e+02
4.030000000000000000e+02,2.134042699999999968e+02
4.040000000000000000e+02,2.136054399999999873e+02
4.050000000000000000e+02,2.138061199999999928e+02
4.060000000000000000e+02,2.140062900000000070e+02
4.070000000000000000e+02,2.142059900000000141e+02
4.080000000000000000e+02,2.144052000000000078e+02
4.090000000000000000e+02,2.146039000000000101e+02
4.100000000000000000e+02,2.148021899999999960e+02
4.110000000000000000e+02,2.149999500000000126e+02
4.120000000000000000e+02,2.151972499999999968e+02
4.130000000000000000e+02,2.153940900000000056e+02
4.140000000000000000e+02,2.155904400000000010e+02
4.150000000000000000e+02,2.157862499999999955e+02
4.160000000000000000e+02,2.159816600000000051e+02
4.170000000000000000e+02,2.161765699999999981e+02
4.180000000000000000e+02,2.163709000000000060e+02
4.190000000000000000e+02,2.165649099999999976e+02
4.200000000000000000e+02,2.167582899999999881e+02
4.210000000000000000e+02,2.169513100000000065e+02
4.220000000000000000e+02,2.171437500000000114e+02
4.230000000000000000e+02,2.173358200000000124e+02
4.240000000000000000e+02,2.175272699999999872e+02
4.250000000000000000e+02,2.177184300000000121e+02
4.260000000000000000e+02,2.179089500000000044e+02
4.270000000000000000e+02,2.180991099999999960e+02
4.280000000000000000e+02,2.182887299999999868e+02
4.290000000000000000e+02,2.184779499999999928e+02
4.300000000000000000e+02,2.186665600000000040e+02
4.310000000000000000e+02,2.188548700000000053e+02
4.320000000000000000e+02,2.190426199999999994e+02
4.330000000000000000e+02,2.192298900000000117e+02
4.340000000000000000e+02,2.194167199999999980e+02
4.350000000000000000e+02,2.196030399999999929e+02
4.360000000000000000e+02,2.197888800000000060e+02
4.370000000000000000e+02,2.199742999999999995e+02
4.380000000000000000e+02,2.201592100000000016e+02
4.390000000000000000e+02,2.203436599999999999e+02
4.400000000000000000e+02,2.205277100000000132e+02
4.410000000000000000e+02,2.207111700000000098e+02
4.420000000000000000e+02,2.208942900000000122e+02
4.430000000000000000e+02,2.210768400000000042e+02
4.440000000000000000e+02,2.212590500000000020e+02
4.450000000000000000e+02,2.214406299999999987e+02
4.460000000000000000e+02,2.216219299999999919e+02
4.470000000000000000e+02,2.218026099999999872e+02
4.480000000000000000e+02,2.219829599999999914e+02
4.490000000000000000e+02,2.221627499999999884e+02
4.500000000000000000e+02,2.223421899999999880e+02
4.510000000000000000e+02,2.225210899999999867e+02
4.520000000000000000e+02,2.226996000000000038e+02
4.530000000000000000e+02,2.228776200000000074e+02
4.540000000000000000e+02,2.230551000000000101e+02
4.550000000000000000e+02,2.232323000000000093e+02
4.560000000000000000e+02,2.234088900000000137e+02
4.570000000000000000e+02,2.235851299999999924e+02
4.580000000000000000e+02,2.237608500000000049e+02
4.590000000000000000e+02,2.239362199999999916e+02
4.600000000000000000e+02,2.241110199999999963e+02
4.610000000000000000e+02,2.242855399999999975e+02
4.620000000000000000e+02,2.244594700000000103e+02
4.630000000000000000e+02,2.246329700000000003e+02
4.640000000000000000e+02,2.248061500000000024e+02
4.650000000000000000e+02,2.249787100000000066e+02
4.660000000000000000e+02,2.251509599999999978e+02
4.670000000000000000e+02,2.253226600000000133e+02
4.680000000000000000e+02,2.254940300000000093e+02
4.690000000000000000e+02,2.256648600000000044e+02
4.700000000000000000e+02,2.258353299999999990e+02
4.710000000000000000e+02,2.260053299999999865e+02
4.720000000000000000e+02,2.261748499999999922e+02
4.730000000000000000e+02,2.263440999999999974e+02
4.740000000000000000e+02,2.265127300000000048e+02
4.750000000000000000e+02,2.266810600000000022e+02
4.760000000000000000e+02,2.268489199999999926e+02
4.770000000000000000e+02,2.270163300000000106e+02
4.780000000000000000e+02,2.271832899999999995e+02
4.790000000000000000e+02,2.273498700000000099e+02
4.800000000000000000e+02,2.275159899999999880e+02
4.810000000000000000e+02,2.276816599999999937e+02
4.820000000000000000e+02,2.278470299999999895e+02
4.830000000000000000e+02,2.280118400000000065e+02
4.840000000000000000e+02,2.281762400000000071e+02
4.850000000000000000e+02,2.283402700000000038e+02
4.860000000000000000e+02,2.285038600000000031e+02
4.870000000000000000e+02,2.286670200000000079e+02
4.880000000000000000e+02,2.288298200000000122e+02
4.890000000000000000e+02,2.289921400000000062e+02
4.900000000000000000e+02,2.291540500000000122e+02
4.910000000000000000e+02,2.293155700000000081e+02
4.920000000000000000e+02,2.294766500000000065e+02
4.930000000000000000e+02,2.296373000000000104e+02
4.940000000000000000e+02,2.297976500000000044e+02
4.950000000000000000e+02,2.299574900000000071e+02
4.960000000000000000e+02,2.301168999999999869e+02
4.970000000000000000e+02,2.302759599999999978e+02
4.980000000000000000e+02,2.304345399999999984e+02
4.990000000000000000e+02,2.305927299999999889e+02
5.000000000000000000e+02,2.307505800000000136e+02
5.010000000000000000e+02,2.309079700000000059e+02
5.020000000000000000e+02,2.310649699999999882e+02
5.030000000000000000e+02,2.312215999999999951e+02
5.040000000000000000e+02,2.313777900000000045e+02
5.050000000000000000e+02,2.315335699999999974e+02
5.060000000000000000e+02,2.316889799999999866e+02
5.070000000000000000e+02,2.318439600000000098e+02
5.080000000000000000e+02,2.319985000000000070e+02
5.090000000000000000e+02,2.321527399999999943e+02
5.100000000000000000e+02,2.323065300000000093e+02
5.110000000000000000e+02,2.324599000000000046e+02
5.120000000000000000e+02,2.326129500000000121e+02
5.130000000000000000e+02,2.327655499999999904e+02
5.140000000000000000e+02,2.329176600000000121e+02
5.150000000000000000e+02,2.330695599999999956e+02
5.160000000000000000e+02,2.332209900000000005e+02
5.170000000000000000e+02,2.333720199999999920e+02
5.180000000000000000e+02,2.335227099999999893e+02
5.190000000000000000e+02,2.336728799999999922e+02
5.200000000000000000e+02,2.338227799999999945e+02
5.210000000000000000e+02,2.339723099999999931e+02
5.220000000000000000e+02,2.341213999999999942e+02
5.230000000000000000e+02,2.342701000000000136e+02
5.240000000000000000e+02,2.344183800000000133e+02
5.250000000000000000e+02,2.345663600000000031e+02
5.260000000000000000e+02,2.347139300000000048e+02
5.270000000000000000e+02,2.348610500000000059e+02
5.280000000000000000e+02,2.350078900000000033e+02
5.290000000000000000e+02,2.351542399999999873e+02
5.300000000000000000e+02,2.353002799999999866e+02
5.310000000000000000e+02,2.354459799999999916e+02
5.320000000000000000e+02,2.355911600000000021e+02
5.330000000000000000e+02,2.357361600000000124e+02
5.340000000000000000e+02,2.358806899999999871e+02
5.350000000000000000e+02,2.360247500000000116e+02
5.360000000000000000e+02,2.361686200000000042e+02
5.370000000000000000e+02,2.363119700000000023e+02
5.380000000000000000e+02,2.364549299999999903e+02
5.390000000000000000e+02,2.365976699999999937e+02
5.400000000000000000e+02,2.367398699999999963e+02
5.410000000000000000e+02,2.368818100000000015e+02
5.420000000000000000e+02,2.370233800000000031e+02
5.430000000000000000e+02,2.371644599999999912e+02
5.440000000000000000e+02,2.373052700000000073e+02
5.450000000000000000e+02,2.374456900000000132e+02
5.460000000000000000e+02,2.375857200000000091e+02
5.470000000000000000e+02,2.377254499999999950e+02
5.480000000000000000e+02,2.378647799999999961e+02
5.490000000000000000e+02,2.380036900000000060e+02
5.500000000000000000e+02,2.381423200000000122e+02
5.510000000000000000e+02,2.382805600000000084e+02
5.520000000000000000e+02,2.384183999999999912e+02
5.530000000000000000e+02,2.385558599999999956e+02
5.540000000000000000e+02,2.386930499999999995e+02
5.550000000000000000e+02,2.388298200000000122e+02
5.560000000000000000e+02,2.389662199999999928e+02
5.570000000000000000e+02,2.391022900000000107e+02
5.580000000000000000e+02,2.392379599999999868e+02
5.590000000000000000e+02,2.393732899999999972e+02
5.600000000000000000e+02,2.395082899999999881e+02
5.610000000000000000e+02,2.396429599999999880e+02
5.620000000000000000e+02,2.397771799999999871e+02
5.630000000000000000e+02,2.399111200000000110e+02
5.640000000000000000e+02,2.400447100000000091e+02
5.650000000000000000e+02,2.401778600000000097e+02
5.660000000000000000e+02,2.403107100000000003e+02
5.670000000000000000e+02,2.404432099999999934e+02
5.680000000000000000e+02,2.405753300000000081e+02
5.690000000000000000e+02,2.407071500000000128e+02
5.700000000000000000e+02,2.408385900000000106e+02
5.710000000000000000e+02,2.409696500000000015e+02
5.720000000000000000e+02,2.411004000000000076e+02
5.730000000000000000e+02,2.412307900000000132e+02
5.740000000000000000e+02,2.413608099999999865e+02
5.750000000000000000e+02,2.414905200000000036e+02
5.760000000000000000e+02,2.416198599999999885e+02
5.770000000000000000e+02,2.417488400000000013e+02
5.780000000000000000e+02,2.418775200000000041e+02
5.790000000000000000e+02,2.420058099999999968e+02
5.800000000000000000e+02,2.421337599999999952e+02
5.810000000000000000e+02,2.422614299999999901e+02
5.820000000000000000e+02,2.423886300000000062e+02
5.830000000000000000e+02,2.425155799999999999e+02
5.840000000000000000e+02,2.426422300000000121e+02
5.850000000000000000e+02,2.427683900000000108e+02
5.860000000000000000e+02,2.428942999999999870e+02
5.870000000000000000e+02,2.430199100000000101e+02
5.880000000000000000e+02,2.431450700000000040e+02
5.890000000000000000e+02,2.432699599999999975e+02
5.900000000000000000e+02,2.433945600000000127e+02
5.910000000000000000e+02,2.435186899999999923e+02
5.920000000000000000e+02,2.436425800000000095e+02
5.930000000000000000e+02,2.437661400000000071e+02
5.940000000000000000e+02,2.438892500000000041e+02
5.950000000000000000e+02,2.440121499999999912e+02
5.960000000000000000e+02,2.441347000000000094e+02
5.970000000000000000e+02,2.442568200000000047e+02
5.980000000000000000e+02,2.443786900000000060e+02
5.990000000000000000e+02,2.445002599999999973e+02