# Time [s], Temperature [C]
1.000000000000000000e+00,2.499997099999999861e+01
2.000000000000000000e+00,1.069246700000000061e+02
3.000000000000000000e+00,1.570202299999999980e+02
4.000000000000000000e+00,1.946973299999999938e+02
5.000000000000000000e+00,2.257943099999999959e+02
6.000000000000000000e+00,2.525364500000000021e+02
7.000000000000000000e+00,2.762757599999999911e+02
8.000000000000000000e+00,2.980538000000000238e+02
9.000000000000000000e+00,3.177549999999999955e+02
1.000000000000000000e+01,3.347069999999999936e+02
1.100000000000000000e+01,3.486250600000000190e+02
1.200000000000000000e+01,3.591447400000000130e+02
1.300000000000000000e+01,3.666345499999999902e+02
1.400000000000000000e+01,3.723508600000000115e+02
1.500000000000000000e+01,3.777540599999999813e+02
1.600000000000000000e+01,3.830013700000000085e+02
1.700000000000000000e+01,3.880757800000000088e+02
1.800000000000000000e+01,3.941747399999999857e+02
1.900000000000000000e+01,4.002301899999999932e+02
2.000000000000000000e+01,4.062821000000000140e+02
2.100000000000000000e+01,4.134466899999999896e+02
2.200000000000000000e+01,4.201077300000000037e+02
2.300000000000000000e+01,4.258171699999999760e+02
2.400000000000000000e+01,4.319675599999999918e+02
2.500000000000000000e+01,4.370743400000000065e+02
2.600000000000000000e+01,4.410033599999999865e+02
2.700000000000000000e+01,4.455494100000000230e+02
2.800000000000000000e+01,4.497755999999999972e+02
2.900000000000000000e+01,4.536592400000000112e+02
3.000000000000000000e+01,4.581943099999999731e+02
3.100000000000000000e+01,4.627616899999999873e+02
3.200000000000000000e+01,4.672417300000000182e+02
3.300000000000000000e+01,4.718229999999999791e+02
3.400000000000000000e+01,4.762153000000000134e+02
3.500000000000000000e+01,4.803205600000000004e+02
3.600000000000000000e+01,4.841759000000000128e+02
3.700000000000000000e+01,4.873856200000000172e+02
3.800000000000000000e+01,4.763214699999999766e+02
3.900000000000000000e+01,4.811504499999999780e+02
4.000000000000000000e+01,4.840514499999999884e+02
4.100000000000000000e+01,4.883407599999999888e+02
4.200000000000000000e+01,4.919666700000000219e+02
4.300000000000000000e+01,4.960999499999999784e+02
4.400000000000000000e+01,4.997570499999999925e+02
4.500000000000000000e+01,5.034450100000000248e+02
4.600000000000000000e+01,5.068095099999999888e+02
4.700000000000000000e+01,5.101185300000000211e+02
4.800000000000000000e+01,5.132685500000000047e+02
4.900000000000000000e+01,5.163761600000000271e+02
5.000000000000000000e+01,5.194369500000000244e+02
5.100000000000000000e+01,5.224885299999999688e+02
5.200000000000000000e+01,5.255001200000000381e+02
5.300000000000000000e+01,5.284756499999999733e+02
5.400000000000000000e+01,5.313720700000000079e+02
5.500000000000000000e+01,5.342031200000000126e+02
5.600000000000000000e+01,5.369241899999999532e+02
5.700000000000000000e+01,5.395448599999999715e+02
5.800000000000000000e+01,5.420712899999999763e+02
5.900000000000000000e+01,5.445167800000000398e+02
6.000000000000000000e+01,5.469285300000000234e+02
6.100000000000000000e+01,5.493083500000000186e+02
6.200000000000000000e+01,5.516765699999999697e+02
6.300000000000000000e+01,5.540246600000000399e+02
6.400000000000000000e+01,5.546708999999999605e+02
6.500000000000000000e+01,5.570953399999999647e+02
6.600000000000000000e+01,5.587843000000000302e+02
6.700000000000000000e+01,5.610120799999999690e+02
6.800000000000000000e+01,5.631542399999999589e+02
6.900000000000000000e+01,5.653478999999999814e+02
7.000000000000000000e+01,5.674949299999999539e+02
7.100000000000000000e+01,5.696274399999999787e+02
7.200000000000000000e+01,5.717174099999999726e+02
7.300000000000000000e+01,5.737856399999999439e+02
7.400000000000000000e+01,5.758146400000000540e+02
7.500000000000000000e+01,5.778140300000000025e+02
7.600000000000000000e+01,5.797759999999999536e+02
7.700000000000000000e+01,5.816991600000000062e+02
7.800000000000000000e+01,5.835790399999999636e+02
7.900000000000000000e+01,5.854138799999999492e+02
8.000000000000000000e+01,5.872256499999999733e+02
8.100000000000000000e+01,5.889731399999999439e+02
8.200000000000000000e+01,5.906983000000000175e+02
8.300000000000000000e+01,5.923777499999999918e+02
8.400000000000000000e+01,5.940460199999999986e+02
8.500000000000000000e+01,5.956933599999999842e+02
8.600000000000000000e+01,5.973291600000000017e+02
8.700000000000000000e+01,5.989476300000000037e+02
8.800000000000000000e+01,6.005516999999999825e+02
8.900000000000000000e+01,6.021413000000000011e+02
9.000000000000000000e+01,6.037086199999999963e+02
9.100000000000000000e+01,6.052537200000000439e+02
9.200000000000000000e+01,6.065372899999999845e+02
9.300000000000000000e+01,6.076013799999999492e+02
9.400000000000000000e+01,6.088695099999999911e+02
9.500000000000000000e+01,6.101146899999999960e+02
9.600000000000000000e+01,6.114378100000000131e+02
9.700000000000000000e+01,6.128342900000000100e+02
9.800000000000000000e+01,6.142404800000000478e+02
9.900000000000000000e+01,6.156674199999999928e+02
1.000000000000000000e+02,6.170917399999999589e+02
1.010000000000000000e+02,6.185024399999999787e+02
1.020000000000000000e+02,6.199013700000000426e+02
1.030000000000000000e+02,6.212867400000000089e+02
1.040000000000000000e+02,6.226416600000000017e+02
1.050000000000000000e+02,6.239901700000000346e+02
1.060000000000000000e+02,6.253169599999999946e+02
1.070000000000000000e+02,6.266244500000000244e+02
1.080000000000000000e+02,6.279204700000000230e+02
1.090000000000000000e+02,6.292025800000000118e+02
1.100000000000000000e+02,6.304769900000000007e+02
1.110000000000000000e+02,6.317296800000000303e+02
1.120000000000000000e+02,6.329804699999999684e+02
1.130000000000000000e+02,6.342183199999999488e+02
1.140000000000000000e+02,6.354471999999999525e+02
1.150000000000000000e+02,6.366581400000000031e+02
1.160000000000000000e+02,6.378587599999999611e+02
1.170000000000000000e+02,6.390428500000000440e+02
1.180000000000000000e+02,6.402211300000000165e+02
1.190000000000000000e+02,6.413653600000000097e+02
1.200000000000000000e+02,6.424126599999999598e+02
1.210000000000000000e+02,6.434057599999999866e+02
1.220000000000000000e+02,6.444206500000000233e+02
1.230000000000000000e+02,6.454357300000000350e+02
1.240000000000000000e+02,6.464728999999999814e+02
1.250000000000000000e+02,6.475235000000000127e+02
1.260000000000000000e+02,6.485844700000000103e+02
1.270000000000000000e+02,6.496384900000000471e+02
1.280000000000000000e+02,6.507026399999999740e+02
1.290000000000000000e+02,6.517648900000000367e+02
1.300000000000000000e+02,6.528185999999999467e+02
1.310000000000000000e+02,6.538679799999999886e+02
1.320000000000000000e+02,6.549155299999999897e+02
1.330000000000000000e+02,6.559506800000000339e+02
1.340000000000000000e+02,6.569827299999999468e+02
1.350000000000000000e+02,6.580082400000000007e+02
1.360000000000000000e+02,6.590169700000000148e+02
1.370000000000000000e+02,6.600304599999999482e+02
1.380000000000000000e+02,6.610221599999999853e+02
1.390000000000000000e+02,6.620133700000000090e+02
1.400000000000000000e+02,6.629817500000000337e+02
1.410000000000000000e+02,6.639113200000000461e+02
1.420000000000000000e+02,6.648124400000000378e+02
1.430000000000000000e+02,6.656985499999999547e+02
1.440000000000000000e+02,6.665808700000000044e+02
1.450000000000000000e+02,6.674565400000000182e+02
1.460000000000000000e+02,6.683402700000000323e+02
1.470000000000000000e+02,6.692125899999999774e+02
1.480000000000000000e+02,6.700925300000000107e+02
1.490000000000000000e+02,6.709674099999999726e+02
1.500000000000000000e+02,6.718445400000000518e+02
1.510000000000000000e+02,6.727145400000000564e+02
1.520000000000000000e+02,6.735795900000000529e+02
1.530000000000000000e+02,6.744503200000000334e+02
1.540000000000000000e+02,6.753057300000000396e+02
1.550000000000000000e+02,6.761586899999999787e+02
1.560000000000000000e+02,6.770101300000000037e+02
1.570000000000000000e+02,6.778503399999999601e+02
1.580000000000000000e+02,6.786905500000000302e+02
1.590000000000000000e+02,6.795079299999999876e+02
1.600000000000000000e+02,6.802829600000000028e+02
1.610000000000000000e+02,6.810863600000000133e+02
1.620000000000000000e+02,6.818610800000000154e+02
1.630000000000000000e+02,6.826306200000000217e+02
1.640000000000000000e+02,6.834011799999999539e+02
1.650000000000000000e+02,6.841608899999999949e+02
1.660000000000000000e+02,6.849156500000000278e+02
1.670000000000000000e+02,6.856743199999999661e+02
1.680000000000000000e+02,6.864316400000000158e+02
1.690000000000000000e+02,6.871831100000000561e+02
1.700000000000000000e+02,6.879387199999999893e+02
1.710000000000000000e+02,6.886918899999999439e+02
1.720000000000000000e+02,6.894392100000000028e+02
1.730000000000000000e+02,6.901928100000000086e+02
1.740000000000000000e+02,6.909464699999999766e+02
1.750000000000000000e+02,6.916924999999999955e+02
1.760000000000000000e+02,6.924374400000000378e+02
1.770000000000000000e+02,6.931842699999999695e+02
1.780000000000000000e+02,6.939317600000000539e+02
1.790000000000000000e+02,6.946747400000000425e+02
1.800000000000000000e+02,6.954211999999999989e+02
1.810000000000000000e+02,6.961696200000000090e+02
1.820000000000000000e+02,6.969194899999999961e+02
1.830000000000000000e+02,6.976636399999999867e+02
1.840000000000000000e+02,6.984077099999999518e+02
1.850000000000000000e+02,6.991535000000000082e+02
1.860000000000000000e+02,6.998997799999999643e+02
1.870000000000000000e+02,7.006560699999999997e+02
1.880000000000000000e+02,7.014235200000000532e+02
1.890000000000000000e+02,7.021978800000000547e+02
1.900000000000000000e+02,7.029913299999999481e+02
1.910000000000000000e+02,7.037977300000000014e+02
1.920000000000000000e+02,7.046274399999999787e+02
1.930000000000000000e+02,7.054754599999999982e+02
1.940000000000000000e+02,7.063546099999999797e+02
1.950000000000000000e+02,7.072564700000000357e+02
1.960000000000000000e+02,7.081899399999999787e+02
1.970000000000000000e+02,7.091571699999999510e+02
1.980000000000000000e+02,7.101696799999999712e+02
1.990000000000000000e+02,7.112195400000000518e+02
2.000000000000000000e+02,7.123264199999999846e+02
2.010000000000000000e+02,7.134726000000000568e+02
2.020000000000000000e+02,7.146810299999999643e+02
2.030000000000000000e+02,7.159408600000000433e+02
2.040000000000000000e+02,7.172545199999999568e+02
2.050000000000000000e+02,7.186190800000000536e+02
2.060000000000000000e+02,7.200257599999999911e+02
2.070000000000000000e+02,7.214810199999999440e+02
2.080000000000000000e+02,7.229642900000000054e+02
2.090000000000000000e+02,7.244776000000000522e+02
2.100000000000000000e+02,7.260122699999999440e+02
2.110000000000000000e+02,7.275610400000000482e+02
2.120000000000000000e+02,7.291220700000000079e+02
2.130000000000000000e+02,7.306875000000000000e+02
2.140000000000000000e+02,7.322557399999999461e+02
2.150000000000000000e+02,7.338236699999999928e+02
2.160000000000000000e+02,7.353886700000000474e+02
2.170000000000000000e+02,7.369436600000000226e+02
2.180000000000000000e+02,7.384925500000000511e+02
2.190000000000000000e+02,7.400266699999999673e+02
2.200000000000000000e+02,7.415540200000000368e+02
2.210000000000000000e+02,7.430625000000000000e+02
2.220000000000000000e+02,7.445565199999999777e+02
2.230000000000000000e+02,7.460363200000000461e+02
2.240000000000000000e+02,7.474990800000000490e+02
2.250000000000000000e+02,7.489463500000000522e+02
2.260000000000000000e+02,7.503698699999999917e+02
2.270000000000000000e+02,7.517843000000000302e+02
2.280000000000000000e+02,7.531724900000000389e+02
2.290000000000000000e+02,7.545449800000000096e+02
2.300000000000000000e+02,7.558992899999999509e+02
2.310000000000000000e+02,7.572356600000000526e+02
2.320000000000000000e+02,7.585477899999999636e+02
2.330000000000000000e+02,7.598499100000000226e+02
2.340000000000000000e+02,7.611261600000000271e+02
2.350000000000000000e+02,7.623858599999999797e+02
2.360000000000000000e+02,7.636268300000000409e+02
2.370000000000000000e+02,7.648523599999999760e+02
2.380000000000000000e+02,7.660538299999999481e+02
2.390000000000000000e+02,7.672427400000000262e+02
2.400000000000000000e+02,7.684097299999999677e+02
2.410000000000000000e+02,7.695575000000000045e+02
2.420000000000000000e+02,7.706935999999999467e+02
2.430000000000000000e+02,7.718042000000000371e+02
2.440000000000000000e+02,7.729017900000000054e+02
2.450000000000000000e+02,7.739819899999999961e+02
2.460000000000000000e+02,7.750448599999999715e+02
2.470000000000000000e+02,7.760916099999999460e+02
2.480000000000000000e+02,7.771225600000000213e+02
2.490000000000000000e+02,7.781356200000000172e+02
2.500000000000000000e+02,7.791298799999999574e+02
2.510000000000000000e+02,7.801154199999999719e+02
2.520000000000000000e+02,7.810779400000000123e+02
2.530000000000000000e+02,7.820293599999999969e+02
2.540000000000000000e+02,7.829656400000000076e+02
2.550000000000000000e+02,7.838861100000000306e+02
2.560000000000000000e+02,7.847886399999999867e+02
2.570000000000000000e+02,7.856796900000000505e+02
2.580000000000000000e+02,7.865554200000000264e+02
2.590000000000000000e+02,7.874164399999999659e+02
2.600000000000000000e+02,7.882649499999999989e+02
2.610000000000000000e+02,7.890987499999999955e+02
2.620000000000000000e+02,7.899172399999999925e+02
2.630000000000000000e+02,7.907254599999999982e+02
2.640000000000000000e+02,7.915191700000000310e+02
2.650000000000000000e+02,7.922994400000000041e+02
2.660000000000000000e+02,7.930676300000000083e+02
2.670000000000000000e+02,7.938227500000000418e+02
2.680000000000000000e+02,7.945633500000000140e+02
2.690000000000000000e+02,7.952948000000000093e+02
2.700000000000000000e+02,7.960117800000000443e+02
2.710000000000000000e+02,7.967177100000000110e+02
2.720000000000000000e+02,7.974132100000000491e+02
2.730000000000000000e+02,7.980962500000000546e+02
2.740000000000000000e+02,7.987656899999999496e+02
2.750000000000000000e+02,7.994282799999999725e+02
2.760000000000000000e+02,8.000773900000000367e+02
2.770000000000000000e+02,8.007138700000000426e+02
2.780000000000000000e+02,8.013435100000000375e+02
2.790000000000000000e+02,8.019606899999999996e+02
2.800000000000000000e+02,8.025657300000000305e+02
2.810000000000000000e+02,8.031647299999999632e+02
2.820000000000000000e+02,8.037485400000000482e+02
2.830000000000000000e+02,8.043263500000000477e+02
2.840000000000000000e+02,8.048933100000000422e+02
2.850000000000000000e+02,8.054516599999999471e+02
2.860000000000000000e+02,8.059975600000000213e+02
2.870000000000000000e+02,8.065374799999999595e+02
2.880000000000000000e+02,8.070668299999999817e+02
2.890000000000000000e+02,8.075855699999999615e+02
2.900000000000000000e+02,8.081008299999999736e+02
2.910000000000000000e+02,8.086020499999999629e+02
2.920000000000000000e+02,8.090966799999999921e+02
2.930000000000000000e+02,8.095825200000000450e+02
2.940000000000000000e+02,8.100617700000000241e+02
2.950000000000000000e+02,8.105298500000000104e+02
2.960000000000000000e+02,8.109932300000000396e+02
2.970000000000000000e+02,8.114456199999999626e+02
2.980000000000000000e+02,8.118912400000000389e+02
2.990000000000000000e+02,8.123317899999999554e+02
3.000000000000000000e+02,8.127611699999999928e+02
3.010000000000000000e+02,8.131847500000000082e+02
3.020000000000000000e+02,8.136014999999999873e+02
3.030000000000000000e+02,8.140102500000000418e+02
3.040000000000000000e+02,8.144110100000000330e+02
3.050000000000000000e+02,8.148076200000000426e+02
3.060000000000000000e+02,8.151951900000000251e+02
3.070000000000000000e+02,8.155769000000000233e+02
3.080000000000000000e+02,8.159528800000000501e+02
3.090000000000000000e+02,8.163206199999999626e+02
3.100000000000000000e+02,8.166829199999999673e+02
3.110000000000000000e+02,8.170397299999999632e+02
3.120000000000000000e+02,8.173892200000000230e+02
3.130000000000000000e+02,8.177332800000000361e+02
3.140000000000000000e+02,8.180705000000000382e+02
3.150000000000000000e+02,8.184027099999999564e+02
3.160000000000000000e+02,8.187282099999999900e+02
3.170000000000000000e+02,8.190498700000000554e+02
3.180000000000000000e+02,8.193644399999999450e+02
3.190000000000000000e+02,8.196741899999999532e+02
3.200000000000000000e+02,8.199779099999999517e+02
3.210000000000000000e+02,8.202772200000000566e+02
3.220000000000000000e+02,8.205705000000000382e+02
3.230000000000000000e+02,8.208605999999999767e+02
3.240000000000000000e+02,8.211423999999999523e+02
3.250000000000000000e+02,8.214220599999999877e+02
3.260000000000000000e+02,8.216962899999999763e+02
3.270000000000000000e+02,8.219658200000000079e+02
3.280000000000000000e+02,8.222284499999999525e+02
3.290000000000000000e+02,8.224896899999999960e+02
3.300000000000000000e+02,8.227445699999999533e+02
3.310000000000000000e+02,8.229945699999999533e+02
3.320000000000000000e+02,8.232418800000000374e+02
3.330000000000000000e+02,8.234822400000000471e+02
3.340000000000000000e+02,8.237205800000000409e+02
3.350000000000000000e+02,8.239553799999999910e+02
3.360000000000000000e+02,8.241838400000000320e+02
3.370000000000000000e+02,8.244101000000000568e+02
3.380000000000000000e+02,8.246312900000000354e+02
3.390000000000000000e+02,8.248495500000000220e+02
3.400000000000000000e+02,8.250634199999999510e+02
3.410000000000000000e+02,8.252736800000000130e+02
3.420000000000000000e+02,8.254806499999999687e+02
3.430000000000000000e+02,8.256820699999999533e+02
3.440000000000000000e+02,8.258831800000000385e+02
3.450000000000000000e+02,8.260773299999999608e+02
3.460000000000000000e+02,8.262711799999999585e+02
3.470000000000000000e+02,8.264588599999999587e+02
3.480000000000000000e+02,8.266456899999999450e+02
3.490000000000000000e+02,8.268266599999999471e+02
3.500000000000000000e+02,8.270076299999999492e+02
3.510000000000000000e+02,8.271821899999999914e+02
3.520000000000000000e+02,8.273563799999999446e+02
3.530000000000000000e+02,8.275256299999999783e+02
3.540000000000000000e+02,8.276923199999999952e+02
3.550000000000000000e+02,8.278566899999999578e+02
3.560000000000000000e+02,8.280174600000000282e+02
3.570000000000000000e+02,8.281766400000000203e+02
3.580000000000000000e+02,8.283308700000000044e+02
3.590000000000000000e+02,8.284839500000000498e+02
3.600000000000000000e+02,8.286343399999999519e+02
3.610000000000000000e+02,8.287809399999999869e+02
3.620000000000000000e+02,8.289269399999999450e+02
3.630000000000000000e+02,8.290681799999999839e+02
3.640000000000000000e+02,8.292075200000000450e+02
3.650000000000000000e+02,8.293459500000000162e+02
3.660000000000000000e+02,8.294800400000000309e+02
3.670000000000000000e+02,8.296119400000000041e+02
3.680000000000000000e+02,8.297434700000000021e+02
3.690000000000000000e+02,8.298702399999999670e+02
3.700000000000000000e+02,8.299956100000000561e+02
3.710000000000000000e+02,8.301201800000000048e+02
3.720000000000000000e+02,8.302403600000000097e+02
3.730000000000000000e+02,8.303591900000000123e+02
3.740000000000000000e+02,8.304772299999999632e+02
3.750000000000000000e+02,8.305911899999999832e+02
3.760000000000000000e+02,8.307038000000000011e+02
3.770000000000000000e+02,8.308157999999999674e+02
3.780000000000000000e+02,8.309237100000000282e+02
3.790000000000000000e+02,8.310304599999999482e+02
3.800000000000000000e+02,8.311353100000000040e+02
3.810000000000000000e+02,8.312393200000000206e+02
3.820000000000000000e+02,8.313398999999999432e+02
3.830000000000000000e+02,8.314397599999999784e+02
3.840000000000000000e+02,8.315367400000000089e+02
3.850000000000000000e+02,8.316340300000000525e+02
3.860000000000000000e+02,8.317277199999999766e+02
3.870000000000000000e+02,8.318203099999999495e+02
3.880000000000000000e+02,8.319107699999999568e+02
3.890000000000000000e+02,8.320016500000000406e+02
3.900000000000000000e+02,8.320885600000000295e+02
3.910000000000000000e+02,8.321748000000000047e+02
3.920000000000000000e+02,8.322590900000000147e+02
3.930000000000000000e+02,8.323421600000000353e+02
3.940000000000000000e+02,8.324248000000000047e+02
3.950000000000000000e+02,8.325046999999999571e+02
3.960000000000000000e+02,8.325834999999999582e+02
3.970000000000000000e+02,8.326605200000000195e+02
3.980000000000000000e+02,8.327381000000000313e+02
3.990000000000000000e+02,8.328118899999999485e+02
4.000000000000000000e+02,8.328854400000000169e+02
4.010000000000000000e+02,8.329572799999999688e+02
4.020000000000000000e+02,8.330279500000000326e+02
4.030000000000000000e+02,8.330970499999999674e+02
4.040000000000000000e+02,8.331667499999999791e+02
4.050000000000000000e+02,8.332330899999999474e+02
4.060000000000000000e+02,8.332991299999999910e+02
4.070000000000000000e+02,8.333635299999999688e+02
4.080000000000000000e+02,8.334268799999999828e+02
4.090000000000000000e+02,8.334890100000000075e+02
4.100000000000000000e+02,8.335518200000000206e+02
4.110000000000000000e+02,8.336113299999999526e+02
4.120000000000000000e+02,8.336706500000000233e+02
4.130000000000000000e+02,8.337285799999999654e+02
4.140000000000000000e+02,8.337854599999999436e+02
4.150000000000000000e+02,8.338412499999999454e+02
4.160000000000000000e+02,8.338977700000000368e+02
4.170000000000000000e+02,8.339511700000000474e+02
4.180000000000000000e+02,8.340044599999999946e+02
4.190000000000000000e+02,8.340563399999999774e+02
4.200000000000000000e+02,8.341075399999999718e+02
4.210000000000000000e+02,8.341575299999999515e+02
4.220000000000000000e+02,8.342069699999999557e+02
4.230000000000000000e+02,8.342552500000000464e+02
4.240000000000000000e+02,8.343042000000000371e+02
4.250000000000000000e+02,8.343505900000000111e+02
4.260000000000000000e+02,8.343967300000000478e+02
4.270000000000000000e+02,8.344415299999999434e+02
4.280000000000000000e+02,8.344860800000000154e+02
4.290000000000000000e+02,8.345293599999999969e+02
4.300000000000000000e+02,8.345720199999999522e+02
4.310000000000000000e+02,8.346140100000000075e+02
4.320000000000000000e+02,8.346552100000000110e+02
4.330000000000000000e+02,8.346969599999999900e+02
4.340000000000000000e+02,8.347363900000000285e+02
4.350000000000000000e+02,8.347756299999999783e+02
4.360000000000000000e+02,8.348137199999999893e+02
4.370000000000000000e+02,8.348515599999999495e+02
4.380000000000000000e+02,8.348883700000000090e+02
4.390000000000000000e+02,8.349246799999999666e+02
4.400000000000000000e+02,8.349603899999999612e+02
4.410000000000000000e+02,8.349954199999999673e+02
4.420000000000000000e+02,8.350297199999999975e+02
4.430000000000000000e+02,8.350649399999999787e+02
4.440000000000000000e+02,8.350977199999999812e+02
4.450000000000000000e+02,8.351306200000000217e+02
4.460000000000000000e+02,8.351625400000000354e+02
4.470000000000000000e+02,8.351940899999999601e+02
4.480000000000000000e+02,8.352248499999999467e+02
4.490000000000000000e+02,8.352553100000000086e+02
4.500000000000000000e+02,8.352849700000000439e+02
4.510000000000000000e+02,8.353142100000000028e+02
4.520000000000000000e+02,8.353428999999999860e+02
4.530000000000000000e+02,8.353710300000000188e+02
4.540000000000000000e+02,8.353986800000000130e+02
4.550000000000000000e+02,8.354260900000000447e+02
4.560000000000000000e+02,8.354541000000000395e+02
4.570000000000000000e+02,8.354799799999999550e+02
4.580000000000000000e+02,8.355061600000000226e+02
4.590000000000000000e+02,8.355313099999999622e+02
4.600000000000000000e+02,8.355562700000000405e+02
4.610000000000000000e+02,8.355806900000000041e+02
4.620000000000000000e+02,8.356046800000000303e+02
4.630000000000000000e+02,8.356281699999999546e+02
4.640000000000000000e+02,8.356513700000000426e+02
4.650000000000000000e+02,8.356740099999999529e+02
4.660000000000000000e+02,8.356963500000000522e+02
4.670000000000000000e+02,8.357182599999999866e+02
4.680000000000000000e+02,8.357397499999999582e+02
4.690000000000000000e+02,8.357608000000000175e+02
4.700000000000000000e+02,8.357816800000000512e+02
4.710000000000000000e+02,8.358021199999999453e+02
4.720000000000000000e+02,8.358234899999999925e+02
4.730000000000000000e+02,8.358428300000000490e+02
4.740000000000000000e+02,8.358624899999999798e+02
4.750000000000000000e+02,8.358812900000000354e+02
4.760000000000000000e+02,8.359000899999999774e+02
4.770000000000000000e+02,8.359182700000000068e+02
4.780000000000000000e+02,8.359363399999999729e+02
4.790000000000000000e+02,8.359539800000000014e+02
4.800000000000000000e+02,8.359713100000000168e+02
4.810000000000000000e+02,8.359882800000000316e+02
4.820000000000000000e+02,8.360049999999999955e+02
4.830000000000000000e+02,8.360214200000000346e+02
4.840000000000000000e+02,8.360375400000000354e+02
4.850000000000000000e+02,8.360534099999999853e+02
4.860000000000000000e+02,8.360689099999999598e+02
4.870000000000000000e+02,8.360841699999999719e+02
4.880000000000000000e+02,8.360992400000000089e+02
4.890000000000000000e+02,8.361139500000000453e+02
4.900000000000000000e+02,8.361284200000000055e+02
4.910000000000000000e+02,8.361426400000000285e+02
4.920000000000000000e+02,8.361565600000000131e+02
4.930000000000000000e+02,8.361702299999999468e+02
4.940000000000000000e+02,8.361838400000000320e+02
4.950000000000000000e+02,8.361984300000000303e+02
4.960000000000000000e+02,8.362110599999999749e+02
4.970000000000000000e+02,8.362241800000000467e+02
4.980000000000000000e+02,8.362365099999999529e+02
4.990000000000000000e+02,8.362489600000000110e+02
5.000000000000000000e+02,8.362609899999999925e+02
5.010000000000000000e+02,8.362729500000000371e+02
5.020000000000000000e+02,8.362845499999999674e+02
5.030000000000000000e+02,8.362960799999999608e+02
5.040000000000000000e+02,8.363072499999999536e+02
5.050000000000000000e+02,8.363183000000000220e+02
5.060000000000000000e+02,8.363291600000000017e+02
5.070000000000000000e+02,8.363397800000000188e+02
5.080000000000000000e+02,8.363502200000000357e+02
5.090000000000000000e+02,8.363605300000000398e+02
5.100000000000000000e+02,8.363706100000000561e+02
5.110000000000000000e+02,8.363804900000000089e+02
5.120000000000000000e+02,8.363902600000000120e+02
5.130000000000000000e+02,8.363997799999999643e+02
5.140000000000000000e+02,8.364091799999999921e+02
5.150000000000000000e+02,8.364184000000000196e+02
5.160000000000000000e+02,8.364274299999999585e+02
5.170000000000000000e+02,8.364362800000000107e+02
5.180000000000000000e+02,8.364450699999999870e+02
5.190000000000000000e+02,8.364536100000000260e+02
5.200000000000000000e+02,8.364620400000000018e+02
5.210000000000000000e+02,8.364703399999999647e+02
5.220000000000000000e+02,8.364783899999999903e+02
5.230000000000000000e+02,8.364863900000000285e+02
5.240000000000000000e+02,8.364942600000000539e+02
5.250000000000000000e+02,8.365018900000000031e+02
5.260000000000000000e+02,8.365094599999999900e+02
5.270000000000000000e+02,8.365169100000000526e+02
5.280000000000000000e+02,8.365241700000000264e+02
5.290000000000000000e+02,8.365313099999999622e+02
5.300000000000000000e+02,8.365383900000000494e+02
5.310000000000000000e+02,8.365452299999999468e+02
5.320000000000000000e+02,8.365520000000000209e+02
5.330000000000000000e+02,8.365587199999999939e+02
5.340000000000000000e+02,8.365652499999999918e+02
5.350000000000000000e+02,8.365716599999999517e+02
5.360000000000000000e+02,8.365780600000000504e+02
5.370000000000000000e+02,8.365856300000000374e+02
5.380000000000000000e+02,8.365913699999999835e+02
5.390000000000000000e+02,8.365977199999999812e+02
5.400000000000000000e+02,8.366034499999999525e+02
5.410000000000000000e+02,8.366093799999999874e+02
5.420000000000000000e+02,8.366149299999999585e+02
5.430000000000000000e+02,8.366206100000000561e+02
5.440000000000000000e+02,8.366259800000000268e+02
5.450000000000000000e+02,8.366314099999999598e+02
5.460000000000000000e+02,8.366366600000000062e+02
5.470000000000000000e+02,8.366418499999999767e+02
5.480000000000000000e+02,8.366469100000000481e+02
5.490000000000000000e+02,8.366519200000000183e+02
5.500000000000000000e+02,8.366567999999999756e+02
5.510000000000000000e+02,8.366616199999999708e+02
5.520000000000000000e+02,8.366663200000000415e+02
5.530000000000000000e+02,8.366709600000000364e+02
5.540000000000000000e+02,8.366755399999999554e+02
5.550000000000000000e+02,8.366799899999999752e+02
5.560000000000000000e+02,8.366843900000000076e+02
5.570000000000000000e+02,8.366887199999999893e+02
5.580000000000000000e+02,8.366929300000000467e+02
5.590000000000000000e+02,8.366971399999999903e+02
5.600000000000000000e+02,8.367012300000000096e+02
5.610000000000000000e+02,8.367052599999999529e+02
5.620000000000000000e+02,8.367091699999999719e+02
5.630000000000000000e+02,8.367130700000000161e+02
5.640000000000000000e+02,8.367168599999999969e+02
5.650000000000000000e+02,8.367205800000000409e+02
5.660000000000000000e+02,8.367242400000000089e+02
5.670000000000000000e+02,8.367278400000000147e+02
5.680000000000000000e+02,8.367313799999999446e+02
5.690000000000000000e+02,8.367348600000000260e+02
5.700000000000000000e+02,8.367382800000000316e+02
5.710000000000000000e+02,8.367416399999999612e+02
5.720000000000000000e+02,8.367449299999999539e+02
5.730000000000000000e+02,8.367481699999999591e+02
5.740000000000000000e+02,8.367513400000000274e+02
5.750000000000000000e+02,8.367544599999999946e+02
5.760000000000000000e+02,8.367575100000000248e+02
5.770000000000000000e+02,8.367604999999999791e+02
5.780000000000000000e+02,8.367634900000000471e+02
5.790000000000000000e+02,8.367663599999999633e+02
5.800000000000000000e+02,8.367692299999999932e+02
5.810000000000000000e+02,8.367720299999999725e+02
5.820000000000000000e+02,8.367747799999999643e+02
5.830000000000000000e+02,8.367774699999999939e+02
5.840000000000000000e+02,8.367801500000000487e+02
5.850000000000000000e+02,8.367827099999999518e+02
5.860000000000000000e+02,8.367852799999999434e+02
5.870000000000000000e+02,8.367877799999999979e+02
5.880000000000000000e+02,8.367902199999999766e+02
5.890000000000000000e+02,8.367926599999999553e+02
5.900000000000000000e+02,8.367950399999999718e+02
5.910000000000000000e+02,8.367973600000000260e+02
5.920000000000000000e+02,8.367996799999999666e+02
5.930000000000000000e+02,8.368019399999999450e+02
5.940000000000000000e+02,8.368041399999999612e+02
5.950000000000000000e+02,8.368063399999999774e+02
5.960000000000000000e+02,8.368084700000000566e+02
5.970000000000000000e+02,8.368105500000000347e+02
5.980000000000000000e+02,8.368126200000000381e+02
5.990000000000000000e+02,8.368146400000000540e+02