# Time [s], Temperature [C]
1.000000000000000000e+00,2.499997099999999861e+01
2.000000000000000000e+00,3.357308600000000354e+01
3.000000000000000000e+00,3.850802600000000098e+01
4.000000000000000000e+00,4.250037400000000076e+01
5.000000000000000000e+00,4.584707600000000127e+01
6.000000000000000000e+00,4.878826899999999966e+01
7.000000000000000000e+00,5.142815399999999926e+01
8.000000000000000000e+00,5.383823000000000292e+01
9.000000000000000000e+00,5.606440400000000324e+01
1.000000000000000000e+01,5.813871000000000322e+01
1.100000000000000000e+01,6.008591100000000296e+01
1.200000000000000000e+01,6.192389699999999664e+01
1.300000000000000000e+01,6.366734300000000246e+01
1.400000000000000000e+01,6.532743800000000078e+01
1.500000000000000000e+01,6.691365100000000155e+01
1.600000000000000000e+01,6.843353299999999706e+01
1.700000000000000000e+01,6.989392100000000596e+01
1.800000000000000000e+01,7.129968300000000170e+01
1.900000000000000000e+01,7.265605899999999906e+01
2.000000000000000000e+01,7.396694200000000308e+01
2.100000000000000000e+01,7.523602300000000298e+01
2.200000000000000000e+01,7.646585100000000068e+01
2.300000000000000000e+01,7.765988900000000683e+01
2.400000000000000000e+01,7.882012199999999780e+01
2.500000000000000000e+01,7.994875299999999640e+01
2.600000000000000000e+01,8.104788999999999533e+01
2.700000000000000000e+01,8.211941500000000360e+01
2.800000000000000000e+01,8.316451299999999947e+01
2.900000000000000000e+01,8.418520399999999881e+01
3.000000000000000000e+01,8.518230400000000202e+01
3.100000000000000000e+01,8.615720399999999302e+01
3.200000000000000000e+01,8.711106900000000053e+01
3.300000000000000000e+01,8.804475399999999752e+01
3.400000000000000000e+01,8.895932799999999929e+01
3.500000000000000000e+01,8.985572799999999916e+01
3.600000000000000000e+01,9.073477900000000318e+01
3.700000000000000000e+01,9.159727499999999623e+01
3.800000000000000000e+01,9.244372599999999807e+01
3.900000000000000000e+01,9.327462800000000698e+01
4.000000000000000000e+01,9.409094199999999830e+01
4.100000000000000000e+01,9.489333299999999838e+01
4.200000000000000000e+01,9.568209799999999632e+01
4.300000000000000000e+01,9.645779400000000692e+01
4.400000000000000000e+01,9.722100799999999765e+01
4.500000000000000000e+01,9.797202299999999298e+01
4.600000000000000000e+01,9.871131099999999492e+01
4.700000000000000000e+01,9.943939199999999801e+01
4.800000000000000000e+01,1.001568099999999930e+02
4.900000000000000000e+01,1.008637599999999992e+02
5.000000000000000000e+01,1.015605099999999936e+02
5.100000000000000000e+01,1.022473099999999988e+02
5.200000000000000000e+01,1.029247399999999999e+02
5.300000000000000000e+01,1.035927599999999984e+02
5.400000000000000000e+01,1.042522400000000005e+02
5.500000000000000000e+01,1.049028500000000008e+02
5.600000000000000000e+01,1.055452899999999943e+02
5.700000000000000000e+01,1.061795900000000046e+02
5.800000000000000000e+01,1.068061399999999992e+02
5.900000000000000000e+01,1.074248400000000032e+02
6.000000000000000000e+01,1.080363300000000066e+02
6.100000000000000000e+01,1.086406999999999954e+02
6.200000000000000000e+01,1.092382199999999983e+02
6.300000000000000000e+01,1.098289699999999982e+02
6.400000000000000000e+01,1.104131200000000064e+02
6.500000000000000000e+01,1.109910100000000028e+02
6.600000000000000000e+01,1.115626599999999939e+02
6.700000000000000000e+01,1.121282999999999959e+02
6.800000000000000000e+01,1.126884199999999936e+02
6.900000000000000000e+01,1.132423299999999955e+02
7.000000000000000000e+01,1.137912000000000035e+02
7.100000000000000000e+01,1.143342499999999973e+02
7.200000000000000000e+01,1.148725599999999929e+02
7.300000000000000000e+01,1.154058299999999946e+02
7.400000000000000000e+01,1.159337199999999939e+02
7.500000000000000000e+01,1.164572100000000034e+02
7.600000000000000000e+01,1.169758300000000020e+02
7.700000000000000000e+01,1.174899099999999947e+02
7.800000000000000000e+01,1.179997999999999934e+02
7.900000000000000000e+01,1.185051500000000004e+02
8.000000000000000000e+01,1.190063399999999945e+02
8.100000000000000000e+01,1.195036599999999964e+02
8.200000000000000000e+01,1.199967599999999948e+02
8.300000000000000000e+01,1.204862200000000030e+02
8.400000000000000000e+01,1.209716399999999936e+02
8.500000000000000000e+01,1.214537200000000041e+02
8.600000000000000000e+01,1.219318899999999957e+02
8.700000000000000000e+01,1.224066899999999976e+02
8.800000000000000000e+01,1.228782199999999989e+02
8.900000000000000000e+01,1.233463100000000026e+02
9.000000000000000000e+01,1.238109500000000054e+02
9.100000000000000000e+01,1.242725700000000018e+02
9.200000000000000000e+01,1.247313000000000045e+02
9.300000000000000000e+01,1.251870200000000040e+02
9.400000000000000000e+01,1.256397000000000048e+02
9.500000000000000000e+01,1.260893599999999992e+02
9.600000000000000000e+01,1.265361599999999953e+02
9.700000000000000000e+01,1.269804199999999952e+02
9.800000000000000000e+01,1.274221299999999957e+02
9.900000000000000000e+01,1.278611199999999997e+02
1.000000000000000000e+02,1.282975199999999916e+02
1.010000000000000000e+02,1.287315499999999986e+02
1.020000000000000000e+02,1.291628300000000138e+02
1.030000000000000000e+02,1.295919199999999876e+02
1.040000000000000000e+02,1.300187699999999893e+02
1.050000000000000000e+02,1.304430999999999869e+02
1.060000000000000000e+02,1.308653600000000097e+02
1.070000000000000000e+02,1.312854199999999878e+02
1.080000000000000000e+02,1.317033999999999878e+02
1.090000000000000000e+02,1.321192800000000034e+02
1.100000000000000000e+02,1.325331700000000126e+02
1.110000000000000000e+02,1.329450199999999995e+02
1.120000000000000000e+02,1.333546100000000081e+02
1.130000000000000000e+02,1.337625299999999982e+02
1.140000000000000000e+02,1.341684999999999945e+02
1.150000000000000000e+02,1.345725899999999911e+02
1.160000000000000000e+02,1.349749899999999911e+02
1.170000000000000000e+02,1.353755600000000072e+02
1.180000000000000000e+02,1.357744000000000142e+02
1.190000000000000000e+02,1.361715900000000090e+02
1.200000000000000000e+02,1.365670599999999979e+02
1.210000000000000000e+02,1.369608900000000062e+02
1.220000000000000000e+02,1.373531499999999994e+02
1.230000000000000000e+02,1.377438199999999995e+02
1.240000000000000000e+02,1.381329200000000128e+02
1.250000000000000000e+02,1.385205699999999922e+02
1.260000000000000000e+02,1.389066799999999944e+02
1.270000000000000000e+02,1.392912399999999877e+02
1.280000000000000000e+02,1.396743800000000135e+02
1.290000000000000000e+02,1.400560299999999927e+02
1.300000000000000000e+02,1.404362000000000137e+02
1.310000000000000000e+02,1.408150200000000041e+02
1.320000000000000000e+02,1.411924999999999955e+02
1.330000000000000000e+02,1.415686499999999910e+02
1.340000000000000000e+02,1.419435699999999940e+02
1.350000000000000000e+02,1.423171700000000044e+02
1.360000000000000000e+02,1.426894700000000000e+02
1.370000000000000000e+02,1.430605600000000095e+02
1.380000000000000000e+02,1.434305899999999951e+02
1.390000000000000000e+02,1.437991600000000005e+02
1.400000000000000000e+02,1.441666299999999978e+02
1.410000000000000000e+02,1.445328399999999931e+02
1.420000000000000000e+02,1.448978600000000085e+02
1.430000000000000000e+02,1.452617999999999938e+02
1.440000000000000000e+02,1.456245600000000024e+02
1.450000000000000000e+02,1.459861899999999935e+02
1.460000000000000000e+02,1.463467699999999923e+02
1.470000000000000000e+02,1.467062099999999987e+02
1.480000000000000000e+02,1.470649300000000039e+02
1.490000000000000000e+02,1.474224900000000105e+02
1.500000000000000000e+02,1.477790500000000122e+02
1.510000000000000000e+02,1.481343099999999993e+02
1.520000000000000000e+02,1.484885700000000099e+02
1.530000000000000000e+02,1.488417800000000000e+02
1.540000000000000000e+02,1.491939399999999978e+02
1.550000000000000000e+02,1.495451799999999878e+02
1.560000000000000000e+02,1.498953899999999919e+02
1.570000000000000000e+02,1.502445999999999913e+02
1.580000000000000000e+02,1.505928999999999860e+02
1.590000000000000000e+02,1.509403800000000047e+02
1.600000000000000000e+02,1.512867099999999994e+02
1.610000000000000000e+02,1.516324600000000089e+02
1.620000000000000000e+02,1.519770699999999977e+02
1.630000000000000000e+02,1.523206900000000132e+02
1.640000000000000000e+02,1.526634400000000085e+02
1.650000000000000000e+02,1.530052499999999895e+02
1.660000000000000000e+02,1.533461299999999881e+02
1.670000000000000000e+02,1.536864500000000078e+02
1.680000000000000000e+02,1.540256799999999942e+02
1.690000000000000000e+02,1.543640100000000075e+02
1.700000000000000000e+02,1.547015199999999879e+02
1.710000000000000000e+02,1.550383899999999926e+02
1.720000000000000000e+02,1.553742200000000082e+02
1.730000000000000000e+02,1.557092299999999909e+02
1.740000000000000000e+02,1.560435300000000041e+02
1.750000000000000000e+02,1.563768200000000093e+02
1.760000000000000000e+02,1.567093700000000069e+02
1.770000000000000000e+02,1.570410300000000063e+02
1.780000000000000000e+02,1.573718599999999981e+02
1.790000000000000000e+02,1.577022599999999954e+02
1.800000000000000000e+02,1.580318599999999947e+02
1.810000000000000000e+02,1.583603500000000111e+02
1.820000000000000000e+02,1.586880999999999915e+02
1.830000000000000000e+02,1.590149999999999864e+02
1.840000000000000000e+02,1.593411099999999863e+02
1.850000000000000000e+02,1.596665000000000134e+02
1.860000000000000000e+02,1.599915300000000116e+02
1.870000000000000000e+02,1.603154100000000142e+02
1.880000000000000000e+02,1.606386899999999969e+02
1.890000000000000000e+02,1.609611800000000130e+02
1.900000000000000000e+02,1.612828399999999931e+02
1.910000000000000000e+02,1.616039299999999912e+02
1.920000000000000000e+02,1.619240299999999877e+02
1.930000000000000000e+02,1.622436399999999992e+02
1.940000000000000000e+02,1.625623899999999935e+02
1.950000000000000000e+02,1.628803299999999865e+02
1.960000000000000000e+02,1.631977200000000039e+02
1.970000000000000000e+02,1.635142700000000104e+02
1.980000000000000000e+02,1.638300900000000127e+02
1.990000000000000000e+02,1.641454500000000110e+02
2.000000000000000000e+02,1.644599900000000048e+02
2.010000000000000000e+02,1.647738799999999912e+02
2.020000000000000000e+02,1.650868199999999888e+02
2.030000000000000000e+02,1.653992000000000075e+02
2.040000000000000000e+02,1.657110900000000129e+02
2.050000000000000000e+02,1.660220500000000072e+02
2.060000000000000000e+02,1.663324900000000071e+02
2.070000000000000000e+02,1.666419799999999896e+02
2.080000000000000000e+02,1.669508099999999899e+02
2.090000000000000000e+02,1.672590299999999957e+02
2.100000000000000000e+02,1.675668000000000006e+02
2.110000000000000000e+02,1.678738400000000013e+02
2.120000000000000000e+02,1.681799900000000036e+02
2.130000000000000000e+02,1.684854400000000112e+02
2.140000000000000000e+02,1.687901899999999955e+02
2.150000000000000000e+02,1.690947600000000079e+02
2.160000000000000000e+02,1.693983200000000124e+02
2.170000000000000000e+02,1.697012200000000064e+02
2.180000000000000000e+02,1.700034499999999866e+02
2.190000000000000000e+02,1.703050800000000038e+02
2.200000000000000000e+02,1.706060899999999947e+02
2.210000000000000000e+02,1.709064500000000066e+02
2.220000000000000000e+02,1.712061199999999985e+02
2.230000000000000000e+02,1.715051899999999989e+02
2.240000000000000000e+02,1.718034399999999948e+02
2.250000000000000000e+02,1.721012599999999964e+02
2.260000000000000000e+02,1.723982200000000091e+02
2.270000000000000000e+02,1.726947900000000118e+02
2.280000000000000000e+02,1.729905400000000100e+02
2.290000000000000000e+02,1.732858400000000074e+02
2.300000000000000000e+02,1.735803799999999910e+02
2.310000000000000000e+02,1.738743100000000084e+02
2.320000000000000000e+02,1.741674299999999960e+02
2.330000000000000000e+02,1.744602999999999895e+02
2.340000000000000000e+02,1.747522999999999911e+02
2.350000000000000000e+02,1.750437799999999982e+02
2.360000000000000000e+02,1.753344299999999976e+02
2.370000000000000000e+02,1.756245000000000118e+02
2.380000000000000000e+02,1.759141500000000065e+02
2.390000000000000000e+02,1.762031900000000064e+02
2.400000000000000000e+02,1.764913300000000049e+02
2.410000000000000000e+02,1.767788799999999867e+02
2.420000000000000000e+02,1.770661299999999869e+02
2.430000000000000000e+02,1.773527400000000114e+02
2.440000000000000000e+02,1.776384299999999996e+02
2.450000000000000000e+02,1.779236099999999965e+02
2.460000000000000000e+02,1.782085299999999961e+02
2.470000000000000000e+02,1.784925100000000100e+02
2.480000000000000000e+02,1.787758900000000040e+02
2.490000000000000000e+02,1.790585800000000063e+02
2.500000000000000000e+02,1.793409900000000050e+02
2.510000000000000000e+02,1.796226000000000056e+02
2.520000000000000000e+02,1.799035900000000083e+02
2.530000000000000000e+02,1.801840200000000038e+02
2.540000000000000000e+02,1.804639300000000048e+02
2.550000000000000000e+02,1.807431599999999889e+02
2.560000000000000000e+02,1.810217399999999941e+02
2.570000000000000000e+02,1.813000600000000020e+02
2.580000000000000000e+02,1.815773900000000083e+02
2.590000000000000000e+02,1.818541899999999885e+02
2.600000000000000000e+02,1.821305999999999869e+02
2.610000000000000000e+02,1.824063700000000097e+02
2.620000000000000000e+02,1.826813799999999901e+02
2.630000000000000000e+02,1.829559900000000141e+02
2.640000000000000000e+02,1.832298299999999927e+02
2.650000000000000000e+02,1.835032799999999895e+02
2.660000000000000000e+02,1.837760299999999916e+02
2.670000000000000000e+02,1.840482800000000054e+02
2.680000000000000000e+02,1.843199899999999900e+02
2.690000000000000000e+02,1.845910499999999956e+02
2.700000000000000000e+02,1.848615399999999909e+02
2.710000000000000000e+02,1.851312900000000070e+02
2.720000000000000000e+02,1.854007400000000132e+02
2.730000000000000000e+02,1.856695400000000120e+02
2.740000000000000000e+02,1.859375300000000095e+02
2.750000000000000000e+02,1.862053200000000004e+02
2.760000000000000000e+02,1.864724600000000123e+02
2.770000000000000000e+02,1.867387699999999882e+02
2.780000000000000000e+02,1.870045800000000042e+02
2.790000000000000000e+02,1.872701600000000042e+02
2.800000000000000000e+02,1.875348500000000058e+02
2.810000000000000000e+02,1.877990000000000066e+02
2.820000000000000000e+02,1.880629000000000133e+02
2.830000000000000000e+02,1.883259400000000028e+02
2.840000000000000000e+02,1.885884100000000103e+02
2.850000000000000000e+02,1.888505700000000047e+02
2.860000000000000000e+02,1.891119099999999946e+02
2.870000000000000000e+02,1.893727399999999932e+02
2.880000000000000000e+02,1.896332199999999943e+02
2.890000000000000000e+02,1.898928799999999910e+02
2.900000000000000000e+02,1.901520800000000122e+02
2.910000000000000000e+02,1.904109300000000076e+02
2.920000000000000000e+02,1.906688800000000015e+02
2.930000000000000000e+02,1.909263899999999978e+02
2.940000000000000000e+02,1.911834299999999871e+02
2.950000000000000000e+02,1.914398999999999944e+02
2.960000000000000000e+02,1.916958199999999977e+02
2.970000000000000000e+02,1.919512499999999875e+02
2.980000000000000000e+02,1.922060899999999890e+02
2.990000000000000000e+02,1.924604799999999898e+02
3.000000000000000000e+02,1.927141100000000051e+02
3.010000000000000000e+02,1.929673799999999915e+02
3.020000000000000000e+02,1.932200799999999958e+02
3.030000000000000000e+02,1.934720499999999959e+02
3.040000000000000000e+02,1.937237399999999923e+02
3.050000000000000000e+02,1.939748700000000099e+02
3.060000000000000000e+02,1.942252499999999884e+02
3.070000000000000000e+02,1.944753100000000074e+02
3.080000000000000000e+02,1.947248400000000004e+02
3.090000000000000000e+02,1.949736300000000142e+02
3.100000000000000000e+02,1.952222099999999898e+02
3.110000000000000000e+02,1.954699899999999957e+02
3.120000000000000000e+02,1.957174400000000105e+02
3.130000000000000000e+02,1.959642900000000054e+02
3.140000000000000000e+02,1.962104300000000023e+02
3.150000000000000000e+02,1.964562799999999925e+02
3.160000000000000000e+02,1.967015700000000038e+02
3.170000000000000000e+02,1.969461200000000076e+02
3.180000000000000000e+02,1.971904900000000112e+02
3.190000000000000000e+02,1.974340500000000134e+02
3.200000000000000000e+02,1.976771099999999990e+02
3.210000000000000000e+02,1.979199199999999905e+02
3.220000000000000000e+02,1.981619100000000060e+02
3.230000000000000000e+02,1.984035000000000082e+02
3.240000000000000000e+02,1.986445899999999938e+02
3.250000000000000000e+02,1.988850899999999911e+02
3.260000000000000000e+02,1.991253100000000131e+02
3.270000000000000000e+02,1.993647300000000087e+02
3.280000000000000000e+02,1.996036499999999876e+02
3.290000000000000000e+02,1.998423200000000008e+02
3.300000000000000000e+02,2.000801999999999907e+02
3.310000000000000000e+02,2.003176899999999989e+02
3.320000000000000000e+02,2.005546600000000126e+02
3.330000000000000000e+02,2.007910500000000127e+02
3.340000000000000000e+02,2.010271899999999903e+02
3.350000000000000000e+02,2.012625400000000013e+02
3.360000000000000000e+02,2.014974799999999959e+02
3.370000000000000000e+02,2.017319500000000119e+02
3.380000000000000000e+02,2.019659399999999891e+02
3.390000000000000000e+02,2.021992199999999968e+02
3.400000000000000000e+02,2.024322400000000073e+02
3.410000000000000000e+02,2.026647600000000011e+02
3.420000000000000000e+02,2.028967700000000036e+02
3.430000000000000000e+02,2.031282300000000021e+02
3.440000000000000000e+02,2.033590499999999963e+02
3.450000000000000000e+02,2.035895800000000122e+02
3.460000000000000000e+02,2.038195200000000114e+02
3.470000000000000000e+02,2.040490299999999877e+02
3.480000000000000000e+02,2.042780500000000075e+02
3.490000000000000000e+02,2.045063199999999881e+02
3.500000000000000000e+02,2.047344999999999970e+02
3.510000000000000000e+02,2.049618700000000047e+02
3.520000000000000000e+02,2.051889600000000087e+02
3.530000000000000000e+02,2.054155900000000088e+02
3.540000000000000000e+02,2.056414200000000108e+02
3.550000000000000000e+02,2.058671099999999967e+02
3.560000000000000000e+02,2.060921199999999942e+02
3.570000000000000000e+02,2.063168900000000008e+02
3.580000000000000000e+02,2.065408799999999871e+02
3.590000000000000000e+02,2.067643899999999917e+02
3.600000000000000000e+02,2.069876899999999864e+02
3.610000000000000000e+02,2.072102099999999893e+02
3.620000000000000000e+02,2.074325300000000141e+02
3.630000000000000000e+02,2.076540799999999933e+02
3.640000000000000000e+02,2.078754399999999976e+02
3.650000000000000000e+02,2.080961000000000070e+02
3.660000000000000000e+02,2.083162800000000061e+02
3.670000000000000000e+02,2.085361800000000017e+02
3.680000000000000000e+02,2.087554199999999867e+02
3.690000000000000000e+02,2.089744300000000123e+02
3.700000000000000000e+02,2.091926699999999926e+02
3.710000000000000000e+02,2.094107799999999884e+02
3.720000000000000000e+02,2.096280399999999986e+02
3.730000000000000000e+02,2.098449599999999862e+02
3.740000000000000000e+02,2.100614600000000110e+02
3.750000000000000000e+02,2.102775000000000034e+02
3.760000000000000000e+02,2.104930600000000140e+02
3.770000000000000000e+02,2.107081000000000017e+02
3.780000000000000000e+02,2.109228500000000111e+02
3.790000000000000000e+02,2.111368300000000033e+02
3.800000000000000000e+02,2.113505199999999888e+02
3.810000000000000000e+02,2.115637399999999957e+02
3.820000000000000000e+02,2.117764899999999955e+02
3.830000000000000000e+02,2.119887999999999977e+02
3.840000000000000000e+02,2.122006100000000117e+02
3.850000000000000000e+02,2.124119399999999871e+02
3.860000000000000000e+02,2.126229099999999903e+02
3.870000000000000000e+02,2.128333399999999926e+02
3.880000000000000000e+02,2.130433299999999974e+02
3.890000000000000000e+02,2.132527200000000107e+02
3.900000000000000000e+02,2.134618399999999951e+02
3.910000000000000000e+02,2.136703899999999976e+02
3.920000000000000000e+02,2.138785399999999868e+02
3.930000000000000000e+02,2.140862099999999941e+02
3.940000000000000000e+02,2.142934099999999944e+02
3.950000000000000000e+02,2.145002399999999909e+02
3.960000000000000000e+02,2.147065699999999993e+02
3.970000000000000000e+02,2.149124500000000069e+02
3.980000000000000000e+02,2.151178299999999979e+02
3.990000000000000000e+02,2.153227799999999945e+02
4.000000000000000000e+02,2.155272699999999872e+02
4.010000000000000000e+02,2.157313699999999983e+02
4.020000000000000000e+02,2.159348099999999988e+02
4.030000000000000000e+02,2.161380800000000022e+02
4.040000000000000000e+02,2.163406500000000108e+02
4.050000000000000000e+02,2.165430100000000095e+02
4.060000000000000000e+02,2.167446600000000103e+02
4.070000000000000000e+02,2.169461200000000076e+02
4.080000000000000000e+02,2.171468700000000069e+02
4.090000000000000000e+02,2.173474099999999964e+02
4.100000000000000000e+02,2.175473200000000134e+02
4.110000000000000000e+02,2.177469900000000109e+02
4.120000000000000000e+02,2.179459400000000073e+02
4.130000000000000000e+02,2.181447599999999909e+02
4.140000000000000000e+02,2.183428299999999922e+02
4.150000000000000000e+02,2.185407299999999964e+02
4.160000000000000000e+02,2.187379500000000121e+02
4.170000000000000000e+02,2.189349499999999864e+02
4.180000000000000000e+02,2.191311800000000005e+02
4.190000000000000000e+02,2.193273000000000081e+02
4.200000000000000000e+02,2.195226700000000051e+02
4.210000000000000000e+02,2.197178600000000017e+02
4.220000000000000000e+02,2.199123999999999910e+02
4.230000000000000000e+02,2.201067199999999957e+02
4.240000000000000000e+02,2.203003199999999993e+02
4.250000000000000000e+02,2.204937999999999931e+02
4.260000000000000000e+02,2.206865500000000111e+02
4.270000000000000000e+02,2.208789400000000001e+02
4.280000000000000000e+02,2.210709200000000010e+02
4.290000000000000000e+02,2.212624500000000012e+02
4.300000000000000000e+02,2.214535400000000038e+02
4.310000000000000000e+02,2.216442399999999964e+02
4.320000000000000000e+02,2.218344600000000071e+02
4.330000000000000000e+02,2.220244000000000142e+02
4.340000000000000000e+02,2.222136500000000012e+02
4.350000000000000000e+02,2.224027100000000132e+02
4.360000000000000000e+02,2.225910299999999893e+02
4.370000000000000000e+02,2.227792200000000093e+02
4.380000000000000000e+02,2.229666899999999998e+02
4.390000000000000000e+02,2.231539600000000121e+02
4.400000000000000000e+02,2.233405899999999917e+02
4.410000000000000000e+02,2.235269499999999994e+02
4.420000000000000000e+02,2.237126900000000091e+02
4.430000000000000000e+02,2.238981200000000058e+02
4.440000000000000000e+02,2.240830699999999922e+02
4.450000000000000000e+02,2.242675800000000095e+02
4.460000000000000000e+02,2.244517199999999946e+02
4.470000000000000000e+02,2.246353799999999978e+02
4.480000000000000000e+02,2.248186000000000035e+02
4.490000000000000000e+02,2.250014299999999992e+02
4.500000000000000000e+02,2.251838099999999940e+02
4.510000000000000000e+02,2.253657200000000103e+02
4.520000000000000000e+02,2.255472599999999943e+02
4.530000000000000000e+02,2.257282999999999902e+02
4.540000000000000000e+02,2.259089400000000012e+02
4.550000000000000000e+02,2.260892299999999864e+02
4.560000000000000000e+02,2.262688899999999990e+02
4.570000000000000000e+02,2.264483799999999860e+02
4.580000000000000000e+02,2.266272299999999973e+02
4.590000000000000000e+02,2.268058499999999924e+02
4.600000000000000000e+02,2.269839299999999866e+02
4.610000000000000000e+02,2.271616199999999992e+02
4.620000000000000000e+02,2.273388400000000047e+02
4.630000000000000000e+02,2.275156100000000094e+02
4.640000000000000000e+02,2.276920000000000073e+02
4.650000000000000000e+02,2.278679400000000044e+02
4.660000000000000000e+02,2.280434700000000134e+02
4.670000000000000000e+02,2.282184599999999932e+02
4.680000000000000000e+02,2.283932200000000137e+02
4.690000000000000000e+02,2.285673099999999920e+02
4.700000000000000000e+02,2.287412600000000111e+02
4.710000000000000000e+02,2.289145200000000102e+02
4.720000000000000000e+02,2.290875900000000058e+02
4.730000000000000000e+02,2.292602400000000102e+02
4.740000000000000000e+02,2.294322400000000073e+02
4.750000000000000000e+02,2.296040199999999913e+02
4.760000000000000000e+02,2.297751900000000091e+02
4.770000000000000000e+02,2.299461499999999887e+02
4.780000000000000000e+02,2.301164400000000114e+02
4.790000000000000000e+02,2.302865899999999897e+02
4.800000000000000000e+02,2.304560899999999890e+02
4.810000000000000000e+02,2.306253800000000069e+02
4.820000000000000000e+02,2.307942500000000052e+02
4.830000000000000000e+02,2.309624799999999993e+02
4.840000000000000000e+02,2.311305099999999868e+02
4.850000000000000000e+02,2.312979300000000080e+02
4.860000000000000000e+02,2.314651299999999878e+02
4.870000000000000000e+02,2.316317400000000077e+02
4.880000000000000000e+02,2.317980300000000113e+02
4.890000000000000000e+02,2.319638799999999890e+02
4.900000000000000000e+02,2.321293000000000006e+02
4.910000000000000000e+02,2.322945100000000025e+02
4.920000000000000000e+02,2.324590100000000064e+02
4.930000000000000000e+02,2.326233699999999942e+02
4.940000000000000000e+02,2.327871900000000096e+02
4.950000000000000000e+02,2.329505900000000054e+02
4.960000000000000000e+02,2.331135899999999879e+02
4.970000000000000000e+02,2.332761800000000108e+02
4.980000000000000000e+02,2.334385100000000079e+02
4.990000000000000000e+02,2.336002000000000010e+02
5.000000000000000000e+02,2.337616099999999904e+02
5.010000000000000000e+02,2.339225600000000043e+02
5.020000000000000000e+02,2.340831300000000113e+02
5.030000000000000000e+02,2.342434700000000021e+02
5.040000000000000000e+02,2.344031799999999919e+02
5.050000000000000000e+02,2.345625200000000063e+02
5.060000000000000000e+02,2.347214999999999918e+02
5.070000000000000000e+02,2.348800400000000081e+02
5.080000000000000000e+02,2.350381800000000112e+02
5.090000000000000000e+02,2.351960400000000107e+02
5.100000000000000000e+02,2.353534099999999967e+02
5.110000000000000000e+02,2.355103799999999978e+02
5.120000000000000000e+02,2.356669300000000078e+02
5.130000000000000000e+02,2.358230900000000076e+02
5.140000000000000000e+02,2.359788700000000006e+02
5.150000000000000000e+02,2.361342799999999897e+02
5.160000000000000000e+02,2.362893100000000004e+02
5.170000000000000000e+02,2.364438900000000103e+02
5.180000000000000000e+02,2.365981400000000008e+02
5.190000000000000000e+02,2.367519800000000032e+02
5.200000000000000000e+02,2.369053999999999860e+02
5.210000000000000000e+02,2.370584599999999966e+02
5.220000000000000000e+02,2.372110700000000065e+02
5.230000000000000000e+02,2.373633399999999938e+02
5.240000000000000000e+02,2.375152600000000120e+02
5.250000000000000000e+02,2.376667500000000075e+02
5.260000000000000000e+02,2.378178299999999865e+02
5.270000000000000000e+02,2.379686000000000092e+02
5.280000000000000000e+02,2.381187899999999900e+02
5.290000000000000000e+02,2.382687999999999988e+02
5.300000000000000000e+02,2.384184099999999944e+02
5.310000000000000000e+02,2.385675999999999988e+02
5.320000000000000000e+02,2.387163999999999930e+02
5.330000000000000000e+02,2.388647300000000087e+02
5.340000000000000000e+02,2.390128499999999860e+02
5.350000000000000000e+02,2.391605099999999879e+02
5.360000000000000000e+02,2.393078199999999924e+02
5.370000000000000000e+02,2.394547399999999868e+02
5.380000000000000000e+02,2.396011000000000024e+02
5.390000000000000000e+02,2.397473599999999863e+02
5.400000000000000000e+02,2.398932000000000073e+02
5.410000000000000000e+02,2.400384699999999896e+02
5.420000000000000000e+02,2.401835800000000063e+02
5.430000000000000000e+02,2.403282499999999970e+02
5.440000000000000000e+02,2.404723799999999869e+02
5.450000000000000000e+02,2.406164100000000019e+02
5.460000000000000000e+02,2.407598299999999938e+02
5.470000000000000000e+02,2.409030500000000075e+02
5.480000000000000000e+02,2.410458999999999889e+02
5.490000000000000000e+02,2.411881899999999916e+02
5.500000000000000000e+02,2.413303400000000067e+02
5.510000000000000000e+02,2.414719499999999925e+02
5.520000000000000000e+02,2.416132499999999936e+02
5.530000000000000000e+02,2.417542899999999975e+02
5.540000000000000000e+02,2.418948100000000068e+02
5.550000000000000000e+02,2.420349999999999966e+02
5.560000000000000000e+02,2.421749399999999923e+02
5.570000000000000000e+02,2.423143599999999935e+02
5.580000000000000000e+02,2.424534500000000037e+02
5.590000000000000000e+02,2.425922899999999913e+02
5.600000000000000000e+02,2.427306199999999876e+02
5.610000000000000000e+02,2.428687400000000025e+02
5.620000000000000000e+02,2.430063199999999881e+02
5.630000000000000000e+02,2.431436600000000112e+02
5.640000000000000000e+02,2.432807200000000023e+02
5.650000000000000000e+02,2.434172199999999862e+02
5.660000000000000000e+02,2.435534499999999980e+02
5.670000000000000000e+02,2.436894399999999905e+02
5.680000000000000000e+02,2.438248900000000106e+02
5.690000000000000000e+02,2.439600700000000018e+02
5.700000000000000000e+02,2.440949699999999893e+02
5.710000000000000000e+02,2.442293500000000108e+02
5.720000000000000000e+02,2.443634600000000034e+02
5.730000000000000000e+02,2.444971799999999860e+02
5.740000000000000000e+02,2.446305499999999995e+02
5.750000000000000000e+02,2.447636099999999999e+02
5.760000000000000000e+02,2.448962999999999965e+02
5.770000000000000000e+02,2.450286600000000021e+02
5.780000000000000000e+02,2.451606600000000071e+02
5.790000000000000000e+02,2.452923299999999927e+02
5.800000000000000000e+02,2.454236099999999965e+02
5.810000000000000000e+02,2.455545799999999872e+02
5.820000000000000000e+02,2.456852000000000089e+02
5.830000000000000000e+02,2.458154299999999921e+02
5.840000000000000000e+02,2.459453599999999938e+02
5.850000000000000000e+02,2.460749099999999885e+02
5.860000000000000000e+02,2.462041000000000111e+02
5.870000000000000000e+02,2.463330100000000016e+02
5.880000000000000000e+02,2.464615200000000073e+02
5.890000000000000000e+02,2.465896899999999903e+02
5.900000000000000000e+02,2.467175599999999918e+02
5.910000000000000000e+02,2.468450499999999863e+02
5.920000000000000000e+02,2.469721800000000087e+02
5.930000000000000000e+02,2.470990400000000022e+02
5.940000000000000000e+02,2.472255100000000141e+02
5.950000000000000000e+02,2.473516400000000033e+02
5.960000000000000000e+02,2.474774800000000141e+02
5.970000000000000000e+02,2.476029200000000117e+02
5.980000000000000000e+02,2.477280100000000118e+02
5.990000000000000000e+02,2.478528599999999926e+02