# Time [s], Temperature [C]
1.000000000000000000e+00,2.500000000000000000e+01
2.000000000000000000e+00,2.500000000000000000e+01
3.000000000000000000e+00,2.500000000000000000e+01
4.000000000000000000e+00,2.500000000000000000e+01
5.000000000000000000e+00,2.500000000000000000e+01
6.000000000000000000e+00,2.500000400000000056e+01
7.000000000000000000e+00,2.500001500000000121e+01
8.000000000000000000e+00,2.500005499999999969e+01
9.000000000000000000e+00,2.500016400000000161e+01
1.000000000000000000e+01,2.500042499999999990e+01
1.100000000000000000e+01,2.500098399999999899e+01
1.200000000000000000e+01,2.500205800000000167e+01
1.300000000000000000e+01,2.500395200000000173e+01
1.400000000000000000e+01,2.500705699999999965e+01
1.500000000000000000e+01,2.501184100000000043e+01
1.600000000000000000e+01,2.501882700000000170e+01
1.700000000000000000e+01,2.502859300000000076e+01
1.800000000000000000e+01,2.504172900000000013e+01
1.900000000000000000e+01,2.505883800000000150e+01
2.000000000000000000e+01,2.508050899999999928e+01
2.100000000000000000e+01,2.510731099999999927e+01
2.200000000000000000e+01,2.513977600000000123e+01
2.300000000000000000e+01,2.517839599999999933e+01
2.400000000000000000e+01,2.522361899999999935e+01
2.500000000000000000e+01,2.527584600000000137e+01
2.600000000000000000e+01,2.533542599999999823e+01
2.700000000000000000e+01,2.540265799999999885e+01
2.800000000000000000e+01,2.547779799999999994e+01
2.900000000000000000e+01,2.556105200000000011e+01
3.000000000000000000e+01,2.565258599999999944e+01
3.100000000000000000e+01,2.575252300000000005e+01
3.200000000000000000e+01,2.586095800000000011e+01
3.300000000000000000e+01,2.597793800000000175e+01
3.400000000000000000e+01,2.610348899999999972e+01
3.500000000000000000e+01,2.623761599999999916e+01
3.600000000000000000e+01,2.638028100000000009e+01
3.700000000000000000e+01,2.653143499999999833e+01
3.800000000000000000e+01,2.669101300000000165e+01
3.900000000000000000e+01,2.685892700000000133e+01
4.000000000000000000e+01,2.703507600000000011e+01
4.100000000000000000e+01,2.721934100000000001e+01
4.200000000000000000e+01,2.741159800000000146e+01
4.300000000000000000e+01,2.761171900000000079e+01
4.400000000000000000e+01,2.781955500000000114e+01
4.500000000000000000e+01,2.803495600000000110e+01
4.600000000000000000e+01,2.825777599999999978e+01
4.700000000000000000e+01,2.848784300000000158e+01
4.800000000000000000e+01,2.872500199999999992e+01
4.900000000000000000e+01,2.896908799999999928e+01
5.000000000000000000e+01,2.921993600000000058e+01
5.100000000000000000e+01,2.947738999999999976e+01
5.200000000000000000e+01,2.974126199999999898e+01
5.300000000000000000e+01,3.001139099999999971e+01
5.400000000000000000e+01,3.028761899999999940e+01
5.500000000000000000e+01,3.056977099999999936e+01
5.600000000000000000e+01,3.085768300000000153e+01
5.700000000000000000e+01,3.115120100000000036e+01
5.800000000000000000e+01,3.145016299999999987e+01
5.900000000000000000e+01,3.175440599999999947e+01
6.000000000000000000e+01,3.206377799999999922e+01
6.100000000000000000e+01,3.237813200000000080e+01
6.200000000000000000e+01,3.269730400000000259e+01
6.300000000000000000e+01,3.302113700000000307e+01
6.400000000000000000e+01,3.334951000000000221e+01
6.500000000000000000e+01,3.368227799999999661e+01
6.600000000000000000e+01,3.401930200000000326e+01
6.700000000000000000e+01,3.436043500000000250e+01
6.800000000000000000e+01,3.470554700000000281e+01
6.900000000000000000e+01,3.505451599999999956e+01
7.000000000000000000e+01,3.540720400000000012e+01
7.100000000000000000e+01,3.576349299999999687e+01
7.200000000000000000e+01,3.612325700000000239e+01
7.300000000000000000e+01,3.648638499999999851e+01
7.400000000000000000e+01,3.685276400000000052e+01
7.500000000000000000e+01,3.722227900000000034e+01
7.600000000000000000e+01,3.759481799999999652e+01
7.700000000000000000e+01,3.797028000000000247e+01
7.800000000000000000e+01,3.834855699999999956e+01
7.900000000000000000e+01,3.872954899999999867e+01
8.000000000000000000e+01,3.911315199999999948e+01
8.100000000000000000e+01,3.949927499999999725e+01
8.200000000000000000e+01,3.988782499999999942e+01
8.300000000000000000e+01,4.027871700000000033e+01
8.400000000000000000e+01,4.067185599999999823e+01
8.500000000000000000e+01,4.106716200000000327e+01
8.600000000000000000e+01,4.146454599999999857e+01
8.700000000000000000e+01,4.186393400000000042e+01
8.800000000000000000e+01,4.226524400000000270e+01
8.900000000000000000e+01,4.266839999999999833e+01
9.000000000000000000e+01,4.307332600000000156e+01
9.100000000000000000e+01,4.347995000000000232e+01
9.200000000000000000e+01,4.388821000000000083e+01
9.300000000000000000e+01,4.429803499999999872e+01
9.400000000000000000e+01,4.470935099999999807e+01
9.500000000000000000e+01,4.512209299999999956e+01
9.600000000000000000e+01,4.553620500000000249e+01
9.700000000000000000e+01,4.595162599999999742e+01
9.800000000000000000e+01,4.636829800000000290e+01
9.900000000000000000e+01,4.678616000000000241e+01
1.000000000000000000e+02,4.720515799999999729e+01
1.010000000000000000e+02,4.762523999999999802e+01
1.020000000000000000e+02,4.804635199999999884e+01
1.030000000000000000e+02,4.846844500000000266e+01
1.040000000000000000e+02,4.889146800000000326e+01
1.050000000000000000e+02,4.931536899999999690e+01
1.060000000000000000e+02,4.974010799999999932e+01
1.070000000000000000e+02,5.016563800000000128e+01
1.080000000000000000e+02,5.059191100000000318e+01
1.090000000000000000e+02,5.101888999999999896e+01
1.100000000000000000e+02,5.144654799999999994e+01
1.110000000000000000e+02,5.187482500000000130e+01
1.120000000000000000e+02,5.230369199999999807e+01
1.130000000000000000e+02,5.273310099999999778e+01
1.140000000000000000e+02,5.316302100000000053e+01
1.150000000000000000e+02,5.359341400000000277e+01
1.160000000000000000e+02,5.402424599999999799e+01
1.170000000000000000e+02,5.445548600000000050e+01
1.180000000000000000e+02,5.488709599999999966e+01
1.190000000000000000e+02,5.531904999999999717e+01
1.200000000000000000e+02,5.575131600000000276e+01
1.210000000000000000e+02,5.618386100000000027e+01
1.220000000000000000e+02,5.661666100000000057e+01
1.230000000000000000e+02,5.704970900000000000e+01
1.240000000000000000e+02,5.748295600000000150e+01
1.250000000000000000e+02,5.791637000000000057e+01
1.260000000000000000e+02,5.834993000000000052e+01
1.270000000000000000e+02,5.878361499999999751e+01
1.280000000000000000e+02,5.921739600000000081e+01
1.290000000000000000e+02,5.965124899999999997e+01
1.300000000000000000e+02,6.008515500000000031e+01
1.310000000000000000e+02,6.051908900000000102e+01
1.320000000000000000e+02,6.095303299999999780e+01
1.330000000000000000e+02,6.138696300000000150e+01
1.340000000000000000e+02,6.182086600000000232e+01
1.350000000000000000e+02,6.225474200000000025e+01
1.360000000000000000e+02,6.268854499999999774e+01
1.370000000000000000e+02,6.312225699999999762e+01
1.380000000000000000e+02,6.355586600000000175e+01
1.390000000000000000e+02,6.398934899999999715e+01
1.400000000000000000e+02,6.442269899999999438e+01
1.410000000000000000e+02,6.485588799999999310e+01
1.420000000000000000e+02,6.528891000000000133e+01
1.430000000000000000e+02,6.572174099999999441e+01
1.440000000000000000e+02,6.615437300000000675e+01
1.450000000000000000e+02,6.658679999999999666e+01
1.460000000000000000e+02,6.701899000000000228e+01
1.470000000000000000e+02,6.745096599999999398e+01
1.480000000000000000e+02,6.788268300000000011e+01
1.490000000000000000e+02,6.831412500000000421e+01
1.500000000000000000e+02,6.874529300000000376e+01
1.510000000000000000e+02,6.917616999999999905e+01
1.520000000000000000e+02,6.960675000000000523e+01
1.530000000000000000e+02,7.003700999999999510e+01
1.540000000000000000e+02,7.046694899999999961e+01
1.550000000000000000e+02,7.089656100000000549e+01
1.560000000000000000e+02,7.132582100000000480e+01
1.570000000000000000e+02,7.175472999999999502e+01
1.580000000000000000e+02,7.218327299999999980e+01
1.590000000000000000e+02,7.261144299999999419e+01
1.600000000000000000e+02,7.303925300000000220e+01
1.610000000000000000e+02,7.346666700000000105e+01
1.620000000000000000e+02,7.389369200000000149e+01
1.630000000000000000e+02,7.432029699999999650e+01
1.640000000000000000e+02,7.474649800000000255e+01
1.650000000000000000e+02,7.517227900000000318e+01
1.660000000000000000e+02,7.559762600000000532e+01
1.670000000000000000e+02,7.602253699999999981e+01
1.680000000000000000e+02,7.644700600000000179e+01
1.690000000000000000e+02,7.687103299999999706e+01
1.700000000000000000e+02,7.729460100000000011e+01
1.710000000000000000e+02,7.771770499999999515e+01
1.720000000000000000e+02,7.814034300000000144e+01
1.730000000000000000e+02,7.856250799999999401e+01
1.740000000000000000e+02,7.898419199999999307e+01
1.750000000000000000e+02,7.940538800000000208e+01
1.760000000000000000e+02,7.982610300000000336e+01
1.770000000000000000e+02,8.024633000000000038e+01
1.780000000000000000e+02,8.066604599999999436e+01
1.790000000000000000e+02,8.108526600000000428e+01
1.800000000000000000e+02,8.150398300000000518e+01
1.810000000000000000e+02,8.192217999999999734e+01
1.820000000000000000e+02,8.233985900000000413e+01
1.830000000000000000e+02,8.275701899999999966e+01
1.840000000000000000e+02,8.317365999999999815e+01
1.850000000000000000e+02,8.358975999999999829e+01
1.860000000000000000e+02,8.400532499999999914e+01
1.870000000000000000e+02,8.442035699999999565e+01
1.880000000000000000e+02,8.483484599999999887e+01
1.890000000000000000e+02,8.524878699999999299e+01
1.900000000000000000e+02,8.566218600000000549e+01
1.910000000000000000e+02,8.607503499999999974e+01
1.920000000000000000e+02,8.648733500000000163e+01
1.930000000000000000e+02,8.689907800000000293e+01
1.940000000000000000e+02,8.731025699999999290e+01
1.950000000000000000e+02,8.772087899999999649e+01
1.960000000000000000e+02,8.813093600000000549e+01
1.970000000000000000e+02,8.854042800000000568e+01
1.980000000000000000e+02,8.894934800000000052e+01
1.990000000000000000e+02,8.935769700000000171e+01
2.000000000000000000e+02,8.976547200000000259e+01
2.010000000000000000e+02,9.017266800000000160e+01
2.020000000000000000e+02,9.057929199999999526e+01
2.030000000000000000e+02,9.098532899999999302e+01
2.040000000000000000e+02,9.139079300000000217e+01
2.050000000000000000e+02,9.179566199999999299e+01
2.060000000000000000e+02,9.219995099999999866e+01
2.070000000000000000e+02,9.260365299999999422e+01
2.080000000000000000e+02,9.300676699999999641e+01
2.090000000000000000e+02,9.340928599999999449e+01
2.100000000000000000e+02,9.381121799999999666e+01
2.110000000000000000e+02,9.421254700000000071e+01
2.120000000000000000e+02,9.461328899999999464e+01
2.130000000000000000e+02,9.501342800000000466e+01
2.140000000000000000e+02,9.541297099999999887e+01
2.150000000000000000e+02,9.581192000000000064e+01
2.160000000000000000e+02,9.621026600000000428e+01
2.170000000000000000e+02,9.660800899999999558e+01
2.180000000000000000e+02,9.700515699999999697e+01
2.190000000000000000e+02,9.740169500000000369e+01
2.200000000000000000e+02,9.779762300000000153e+01
2.210000000000000000e+02,9.819294700000000375e+01
2.220000000000000000e+02,9.858766199999999458e+01
2.230000000000000000e+02,9.898177300000000400e+01
2.240000000000000000e+02,9.937527500000000202e+01
2.250000000000000000e+02,9.976817300000000444e+01
2.260000000000000000e+02,1.001604600000000005e+02
2.270000000000000000e+02,1.005521300000000053e+02
2.280000000000000000e+02,1.009432000000000045e+02
2.290000000000000000e+02,1.013336599999999947e+02
2.300000000000000000e+02,1.017235000000000014e+02
2.310000000000000000e+02,1.021127299999999991e+02
2.320000000000000000e+02,1.025013600000000054e+02
2.330000000000000000e+02,1.028893599999999964e+02
2.340000000000000000e+02,1.032767500000000069e+02
2.350000000000000000e+02,1.036635200000000054e+02
2.360000000000000000e+02,1.040496700000000061e+02
2.370000000000000000e+02,1.044352200000000011e+02
2.380000000000000000e+02,1.048201399999999950e+02
2.390000000000000000e+02,1.052044499999999942e+02
2.400000000000000000e+02,1.055881499999999988e+02
2.410000000000000000e+02,1.059712200000000024e+02
2.420000000000000000e+02,1.063536900000000003e+02
2.430000000000000000e+02,1.067355299999999971e+02
2.440000000000000000e+02,1.071167499999999961e+02
2.450000000000000000e+02,1.074973600000000005e+02
2.460000000000000000e+02,1.078773500000000070e+02
2.470000000000000000e+02,1.082567200000000014e+02
2.480000000000000000e+02,1.086354800000000012e+02
2.490000000000000000e+02,1.090136099999999999e+02
2.500000000000000000e+02,1.093911399999999929e+02
2.510000000000000000e+02,1.097680399999999992e+02
2.520000000000000000e+02,1.101443299999999965e+02
2.530000000000000000e+02,1.105199900000000071e+02
2.540000000000000000e+02,1.108950300000000055e+02
2.550000000000000000e+02,1.112694699999999983e+02
2.560000000000000000e+02,1.116432800000000043e+02
2.570000000000000000e+02,1.120164900000000046e+02
2.580000000000000000e+02,1.123890700000000038e+02
2.590000000000000000e+02,1.127610300000000052e+02
2.600000000000000000e+02,1.131323699999999945e+02
2.610000000000000000e+02,1.135030900000000003e+02
2.620000000000000000e+02,1.138731999999999971e+02
2.630000000000000000e+02,1.142426899999999961e+02
2.640000000000000000e+02,1.146115599999999972e+02
2.650000000000000000e+02,1.149798100000000005e+02
2.660000000000000000e+02,1.153474499999999949e+02
2.670000000000000000e+02,1.157144799999999947e+02
2.680000000000000000e+02,1.160808899999999966e+02
2.690000000000000000e+02,1.164466900000000038e+02
2.700000000000000000e+02,1.168118699999999990e+02
2.710000000000000000e+02,1.171764299999999963e+02
2.720000000000000000e+02,1.175403699999999958e+02
2.730000000000000000e+02,1.179037000000000006e+02
2.740000000000000000e+02,1.182664199999999965e+02
2.750000000000000000e+02,1.186285199999999946e+02
2.760000000000000000e+02,1.189900099999999981e+02
2.770000000000000000e+02,1.193508800000000036e+02
2.780000000000000000e+02,1.197111400000000003e+02
2.790000000000000000e+02,1.200708000000000055e+02
2.800000000000000000e+02,1.204298399999999987e+02
2.810000000000000000e+02,1.207882599999999940e+02
2.820000000000000000e+02,1.211460600000000056e+02
2.830000000000000000e+02,1.215032700000000006e+02
2.840000000000000000e+02,1.218598599999999976e+02
2.850000000000000000e+02,1.222158400000000000e+02
2.860000000000000000e+02,1.225712099999999936e+02
2.870000000000000000e+02,1.229259600000000034e+02
2.880000000000000000e+02,1.232801099999999934e+02
2.890000000000000000e+02,1.236336500000000029e+02
2.900000000000000000e+02,1.239865800000000036e+02
2.910000000000000000e+02,1.243388999999999953e+02
2.920000000000000000e+02,1.246906100000000066e+02
2.930000000000000000e+02,1.250417300000000012e+02
2.940000000000000000e+02,1.253922100000000057e+02
2.950000000000000000e+02,1.257420999999999935e+02
2.960000000000000000e+02,1.260913800000000009e+02
2.970000000000000000e+02,1.264400600000000026e+02
2.980000000000000000e+02,1.267881399999999985e+02
2.990000000000000000e+02,1.271355999999999966e+02
3.000000000000000000e+02,1.274824799999999954e+02
3.010000000000000000e+02,1.278287299999999931e+02
3.020000000000000000e+02,1.281743800000000135e+02
3.030000000000000000e+02,1.285194199999999967e+02
3.040000000000000000e+02,1.288638799999999947e+02
3.050000000000000000e+02,1.292077199999999948e+02
3.060000000000000000e+02,1.295509600000000034e+02
3.070000000000000000e+02,1.298936199999999985e+02
3.080000000000000000e+02,1.302356599999999958e+02
3.090000000000000000e+02,1.305770899999999983e+02
3.100000000000000000e+02,1.309179200000000094e+02
3.110000000000000000e+02,1.312581800000000101e+02
3.120000000000000000e+02,1.315978200000000129e+02
3.130000000000000000e+02,1.319368699999999990e+02
3.140000000000000000e+02,1.322753299999999967e+02
3.150000000000000000e+02,1.326131599999999935e+02
3.160000000000000000e+02,1.329504100000000051e+02
3.170000000000000000e+02,1.332870800000000031e+02
3.180000000000000000e+02,1.336231400000000065e+02
3.190000000000000000e+02,1.339585999999999899e+02
3.200000000000000000e+02,1.342934700000000134e+02
3.210000000000000000e+02,1.346277499999999918e+02
3.220000000000000000e+02,1.349614300000000071e+02
3.230000000000000000e+02,1.352945100000000025e+02
3.240000000000000000e+02,1.356270100000000127e+02
3.250000000000000000e+02,1.359589200000000062e+02
3.260000000000000000e+02,1.362902400000000114e+02
3.270000000000000000e+02,1.366209599999999966e+02
3.280000000000000000e+02,1.369510999999999967e+02
3.290000000000000000e+02,1.372806400000000053e+02
3.300000000000000000e+02,1.376095899999999972e+02
3.310000000000000000e+02,1.379379600000000039e+02
3.320000000000000000e+02,1.382657299999999907e+02
3.330000000000000000e+02,1.385929099999999892e+02
3.340000000000000000e+02,1.389195100000000025e+02
3.350000000000000000e+02,1.392455300000000022e+02
3.360000000000000000e+02,1.395709699999999884e+02
3.370000000000000000e+02,1.398958100000000115e+02
3.380000000000000000e+02,1.402200599999999895e+02
3.390000000000000000e+02,1.405437300000000107e+02
3.400000000000000000e+02,1.408668399999999963e+02
3.410000000000000000e+02,1.411893499999999904e+02
3.420000000000000000e+02,1.415112599999999929e+02
3.430000000000000000e+02,1.418326000000000136e+02
3.440000000000000000e+02,1.421533699999999953e+02
3.450000000000000000e+02,1.424735599999999920e+02
3.460000000000000000e+02,1.427931499999999971e+02
3.470000000000000000e+02,1.431121699999999919e+02
3.480000000000000000e+02,1.434305999999999983e+02
3.490000000000000000e+02,1.437484699999999975e+02
3.500000000000000000e+02,1.440657699999999863e+02
3.510000000000000000e+02,1.443824799999999868e+02
3.520000000000000000e+02,1.446985899999999958e+02
3.530000000000000000e+02,1.450141399999999976e+02
3.540000000000000000e+02,1.453291299999999922e+02
3.550000000000000000e+02,1.456435400000000016e+02
3.560000000000000000e+02,1.459573699999999974e+02
3.570000000000000000e+02,1.462706100000000049e+02
3.580000000000000000e+02,1.465833000000000084e+02
3.590000000000000000e+02,1.468954200000000014e+02
3.600000000000000000e+02,1.472069500000000062e+02
3.610000000000000000e+02,1.475179100000000005e+02
3.620000000000000000e+02,1.478283099999999877e+02
3.630000000000000000e+02,1.481381199999999865e+02
3.640000000000000000e+02,1.484473900000000128e+02
3.650000000000000000e+02,1.487560599999999909e+02
3.660000000000000000e+02,1.490641799999999932e+02
3.670000000000000000e+02,1.493717300000000137e+02
3.680000000000000000e+02,1.496787099999999953e+02
3.690000000000000000e+02,1.499851199999999949e+02
3.700000000000000000e+02,1.502909699999999873e+02
3.710000000000000000e+02,1.505962499999999977e+02
3.720000000000000000e+02,1.509009700000000009e+02
3.730000000000000000e+02,1.512051199999999938e+02
3.740000000000000000e+02,1.515087100000000078e+02
3.750000000000000000e+02,1.518117399999999861e+02
3.760000000000000000e+02,1.521142000000000110e+02
3.770000000000000000e+02,1.524161100000000033e+02
3.780000000000000000e+02,1.527174400000000105e+02
3.790000000000000000e+02,1.530182200000000137e+02
3.800000000000000000e+02,1.533184400000000096e+02
3.810000000000000000e+02,1.536180899999999951e+02
3.820000000000000000e+02,1.539171900000000051e+02
3.830000000000000000e+02,1.542157300000000077e+02
3.840000000000000000e+02,1.545137200000000064e+02
3.850000000000000000e+02,1.548111399999999946e+02
3.860000000000000000e+02,1.551080000000000041e+02
3.870000000000000000e+02,1.554043100000000095e+02
3.880000000000000000e+02,1.557000700000000109e+02
3.890000000000000000e+02,1.559952700000000050e+02
3.900000000000000000e+02,1.562899199999999951e+02
3.910000000000000000e+02,1.565840100000000064e+02
3.920000000000000000e+02,1.568775500000000136e+02
3.930000000000000000e+02,1.571705300000000136e+02
3.940000000000000000e+02,1.574629799999999875e+02
3.950000000000000000e+02,1.577548700000000110e+02
3.960000000000000000e+02,1.580461899999999957e+02
3.970000000000000000e+02,1.583369800000000112e+02
3.980000000000000000e+02,1.586272099999999909e+02
3.990000000000000000e+02,1.589168999999999983e+02
4.000000000000000000e+02,1.592060199999999952e+02
4.010000000000000000e+02,1.594946099999999944e+02
4.020000000000000000e+02,1.597826499999999896e+02
4.030000000000000000e+02,1.600701400000000092e+02
4.040000000000000000e+02,1.603571000000000026e+02
4.050000000000000000e+02,1.606435099999999920e+02
4.060000000000000000e+02,1.609293700000000058e+02
4.070000000000000000e+02,1.612146799999999871e+02
4.080000000000000000e+02,1.614994499999999960e+02
4.090000000000000000e+02,1.617836800000000039e+02
4.100000000000000000e+02,1.620673700000000110e+02
4.110000000000000000e+02,1.623505100000000141e+02
4.120000000000000000e+02,1.626331199999999910e+02
4.130000000000000000e+02,1.629151799999999923e+02
4.140000000000000000e+02,1.631966999999999928e+02
4.150000000000000000e+02,1.634776899999999955e+02
4.160000000000000000e+02,1.637581299999999942e+02
4.170000000000000000e+02,1.640380399999999952e+02
4.180000000000000000e+02,1.643174099999999953e+02
4.190000000000000000e+02,1.645962399999999946e+02
4.200000000000000000e+02,1.648745399999999961e+02
4.210000000000000000e+02,1.651522999999999968e+02
4.220000000000000000e+02,1.654295199999999966e+02
4.230000000000000000e+02,1.657062099999999987e+02
4.240000000000000000e+02,1.659823599999999999e+02
4.250000000000000000e+02,1.662580000000000098e+02
4.260000000000000000e+02,1.665330800000000124e+02
4.270000000000000000e+02,1.668076299999999890e+02
4.280000000000000000e+02,1.670816700000000026e+02
4.290000000000000000e+02,1.673551600000000121e+02
4.300000000000000000e+02,1.676281299999999987e+02
4.310000000000000000e+02,1.679005600000000129e+02
4.320000000000000000e+02,1.681724700000000041e+02
4.330000000000000000e+02,1.684438499999999976e+02
4.340000000000000000e+02,1.687147099999999966e+02
4.350000000000000000e+02,1.689850199999999916e+02
4.360000000000000000e+02,1.692548199999999952e+02
4.370000000000000000e+02,1.695240900000000011e+02
4.380000000000000000e+02,1.697928300000000092e+02
4.390000000000000000e+02,1.700610499999999945e+02
4.400000000000000000e+02,1.703287500000000136e+02
4.410000000000000000e+02,1.705959200000000067e+02
4.420000000000000000e+02,1.708625600000000020e+02
4.430000000000000000e+02,1.711286900000000060e+02
4.440000000000000000e+02,1.713942999999999870e+02
4.450000000000000000e+02,1.716593900000000019e+02
4.460000000000000000e+02,1.719239499999999907e+02
4.470000000000000000e+02,1.721879999999999882e+02
4.480000000000000000e+02,1.724515199999999879e+02
4.490000000000000000e+02,1.727145199999999932e+02
4.500000000000000000e+02,1.729770200000000102e+02
4.510000000000000000e+02,1.732389799999999980e+02
4.520000000000000000e+02,1.735004399999999976e+02
4.530000000000000000e+02,1.737613699999999994e+02
4.540000000000000000e+02,1.740217900000000100e+02
4.550000000000000000e+02,1.742816899999999976e+02
4.560000000000000000e+02,1.745410799999999938e+02
4.570000000000000000e+02,1.747999599999999987e+02
4.580000000000000000e+02,1.750583200000000090e+02
4.590000000000000000e+02,1.753161599999999964e+02
4.600000000000000000e+02,1.755734999999999957e+02
4.610000000000000000e+02,1.758303200000000004e+02
4.620000000000000000e+02,1.760866399999999885e+02
4.630000000000000000e+02,1.763424400000000105e+02
4.640000000000000000e+02,1.765977300000000128e+02
4.650000000000000000e+02,1.768525099999999952e+02
4.660000000000000000e+02,1.771067999999999927e+02
4.670000000000000000e+02,1.773605699999999956e+02
4.680000000000000000e+02,1.776138200000000040e+02
4.690000000000000000e+02,1.778665799999999990e+02
4.700000000000000000e+02,1.781188199999999995e+02
4.710000000000000000e+02,1.783705600000000118e+02
4.720000000000000000e+02,1.786218000000000075e+02
4.730000000000000000e+02,1.788725300000000118e+02
4.740000000000000000e+02,1.791227599999999995e+02
4.750000000000000000e+02,1.793724699999999928e+02
4.760000000000000000e+02,1.796216900000000010e+02
4.770000000000000000e+02,1.798704199999999958e+02
4.780000000000000000e+02,1.801186399999999992e+02
4.790000000000000000e+02,1.803663500000000113e+02
4.800000000000000000e+02,1.806135700000000099e+02
4.810000000000000000e+02,1.808602899999999920e+02
4.820000000000000000e+02,1.811065099999999859e+02
4.830000000000000000e+02,1.813522199999999884e+02
4.840000000000000000e+02,1.815974400000000060e+02
4.850000000000000000e+02,1.818421800000000133e+02
4.860000000000000000e+02,1.820863999999999976e+02
4.870000000000000000e+02,1.823301199999999938e+02
4.880000000000000000e+02,1.825733600000000081e+02
4.890000000000000000e+02,1.828161000000000058e+02
4.900000000000000000e+02,1.830583499999999901e+02
4.910000000000000000e+02,1.833000900000000115e+02
4.920000000000000000e+02,1.835413700000000006e+02
4.930000000000000000e+02,1.837821199999999919e+02
4.940000000000000000e+02,1.840224000000000046e+02
4.950000000000000000e+02,1.842621900000000039e+02
4.960000000000000000e+02,1.845014799999999866e+02
4.970000000000000000e+02,1.847402800000000127e+02
4.980000000000000000e+02,1.849785899999999970e+02
4.990000000000000000e+02,1.852164199999999994e+02
5.000000000000000000e+02,1.854537699999999916e+02
5.010000000000000000e+02,1.856906099999999924e+02
5.020000000000000000e+02,1.859269700000000114e+02
5.030000000000000000e+02,1.861628300000000138e+02
5.040000000000000000e+02,1.863982200000000091e+02
5.050000000000000000e+02,1.866331299999999942e+02
5.060000000000000000e+02,1.868675499999999943e+02
5.070000000000000000e+02,1.871014900000000125e+02
5.080000000000000000e+02,1.873349300000000142e+02
5.090000000000000000e+02,1.875678900000000056e+02
5.100000000000000000e+02,1.878003500000000088e+02
5.110000000000000000e+02,1.880323600000000113e+02
5.120000000000000000e+02,1.882638900000000035e+02
5.130000000000000000e+02,1.884949200000000076e+02
5.140000000000000000e+02,1.887254800000000046e+02
5.150000000000000000e+02,1.889555499999999881e+02
5.160000000000000000e+02,1.891851499999999930e+02
5.170000000000000000e+02,1.894142799999999909e+02
5.180000000000000000e+02,1.896429100000000005e+02
5.190000000000000000e+02,1.898710800000000063e+02
5.200000000000000000e+02,1.900987700000000018e+02
5.210000000000000000e+02,1.903259899999999902e+02
5.220000000000000000e+02,1.905527199999999937e+02
5.230000000000000000e+02,1.907789799999999900e+02
5.240000000000000000e+02,1.910047600000000045e+02
5.250000000000000000e+02,1.912300700000000120e+02
5.260000000000000000e+02,1.914549100000000124e+02
5.270000000000000000e+02,1.916792599999999993e+02
5.280000000000000000e+02,1.919031500000000108e+02
5.290000000000000000e+02,1.921265699999999867e+02
5.300000000000000000e+02,1.923495200000000125e+02
5.310000000000000000e+02,1.925719899999999996e+02
5.320000000000000000e+02,1.927940099999999859e+02
5.330000000000000000e+02,1.930155300000000125e+02
5.340000000000000000e+02,1.932366000000000099e+02
5.350000000000000000e+02,1.934572000000000003e+02
5.360000000000000000e+02,1.936773399999999867e+02
5.370000000000000000e+02,1.938969999999999914e+02
5.380000000000000000e+02,1.941161999999999921e+02
5.390000000000000000e+02,1.943349200000000110e+02
5.400000000000000000e+02,1.945531799999999976e+02
5.410000000000000000e+02,1.947709800000000087e+02
5.420000000000000000e+02,1.949883100000000127e+02
5.430000000000000000e+02,1.952051700000000096e+02
5.440000000000000000e+02,1.954215700000000027e+02
5.450000000000000000e+02,1.956375099999999918e+02
5.460000000000000000e+02,1.958530000000000086e+02
5.470000000000000000e+02,1.960680099999999868e+02
5.480000000000000000e+02,1.962825599999999895e+02
5.490000000000000000e+02,1.964966400000000135e+02
5.500000000000000000e+02,1.967102800000000116e+02
5.510000000000000000e+02,1.969234500000000025e+02
5.520000000000000000e+02,1.971361499999999864e+02
5.530000000000000000e+02,1.973483999999999980e+02
5.540000000000000000e+02,1.975602000000000089e+02
5.550000000000000000e+02,1.977715100000000064e+02
5.560000000000000000e+02,1.979823900000000094e+02
5.570000000000000000e+02,1.981928100000000086e+02
5.580000000000000000e+02,1.984027700000000038e+02
5.590000000000000000e+02,1.986122699999999952e+02
5.600000000000000000e+02,1.988213199999999858e+02
5.610000000000000000e+02,1.990299200000000042e+02
5.620000000000000000e+02,1.992380499999999870e+02
5.630000000000000000e+02,1.994457400000000007e+02
5.640000000000000000e+02,1.996529500000000041e+02
5.650000000000000000e+02,1.998597300000000132e+02
5.660000000000000000e+02,2.000660599999999931e+02
5.670000000000000000e+02,2.002719299999999976e+02
5.680000000000000000e+02,2.004773399999999981e+02
5.690000000000000000e+02,2.006822999999999979e+02
5.700000000000000000e+02,2.008868099999999970e+02
5.710000000000000000e+02,2.010908799999999985e+02
5.720000000000000000e+02,2.012944899999999961e+02
5.730000000000000000e+02,2.014976499999999930e+02
5.740000000000000000e+02,2.017003599999999892e+02
5.750000000000000000e+02,2.019026299999999878e+02
5.760000000000000000e+02,2.021044500000000141e+02
5.770000000000000000e+02,2.023058200000000113e+02
5.780000000000000000e+02,2.025067300000000046e+02
5.790000000000000000e+02,2.027072000000000003e+02
5.800000000000000000e+02,2.029072299999999984e+02
5.810000000000000000e+02,2.031068099999999959e+02
5.820000000000000000e+02,2.033059399999999926e+02
5.830000000000000000e+02,2.035046199999999885e+02
5.840000000000000000e+02,2.037028699999999901e+02
5.850000000000000000e+02,2.039006699999999910e+02
5.860000000000000000e+02,2.040980099999999879e+02
5.870000000000000000e+02,2.042949199999999905e+02
5.880000000000000000e+02,2.044913899999999956e+02
5.890000000000000000e+02,2.046874099999999999e+02
5.900000000000000000e+02,2.048830000000000098e+02
5.910000000000000000e+02,2.050781200000000126e+02
5.920000000000000000e+02,2.052728299999999990e+02
5.930000000000000000e+02,2.054670700000000068e+02
5.940000000000000000e+02,2.056608899999999949e+02
5.950000000000000000e+02,2.058542600000000107e+02
5.960000000000000000e+02,2.060472000000000037e+02
5.970000000000000000e+02,2.062396899999999960e+02
5.980000000000000000e+02,2.064317299999999875e+02
5.990000000000000000e+02,2.066233499999999879e+02