# Time [s], Convective Heat Transfer Coefficient [W/m2K]
1.000000000000000000e+00,0.000000000000000000e+00
2.000000000000000000e+00,0.000000000000000000e+00
3.000000000000000000e+00,0.000000000000000000e+00
4.000000000000000000e+00,1.915079995362458862e-02
5.000000000000000000e+00,3.040000000141642594e-02
6.000000000000000000e+00,5.599727877995352293e-02
7.000000000000000000e+00,9.217473031627271274e-02
8.000000000000000000e+00,1.406915400961910312e-01
9.000000000000000000e+00,2.027415834143089512e-01
1.000000000000000000e+01,2.782131392400700176e-01
1.100000000000000000e+01,3.666901891833341809e-01
1.200000000000000000e+01,4.750385035454854910e-01
1.300000000000000000e+01,5.900591418258748222e-01
1.400000000000000000e+01,7.131293544432348863e-01
1.500000000000000000e+01,8.432414676427126832e-01
1.600000000000000000e+01,9.791426061380823498e-01
1.700000000000000000e+01,1.119655247768705175e+00
1.800000000000000000e+01,1.263724142118610505e+00
1.900000000000000000e+01,1.410415400109845674e+00
2.000000000000000000e+01,1.558913032153800948e+00
2.100000000000000000e+01,1.708508223256022474e+00
2.200000000000000000e+01,1.858580339034314299e+00
2.300000000000000000e+01,2.008593041322973338e+00
2.400000000000000000e+01,2.158086617200670965e+00
2.500000000000000000e+01,2.306653357394258919e+00
2.600000000000000000e+01,2.453964725229440091e+00
2.700000000000000000e+01,2.599739978780843508e+00
2.800000000000000000e+01,2.743747710373689142e+00
2.900000000000000000e+01,2.885806334158096398e+00
3.000000000000000000e+01,3.025779341646463561e+00
3.100000000000000000e+01,3.163558746774036479e+00
3.200000000000000000e+01,3.299070412404212060e+00
3.300000000000000000e+01,3.432267667577081571e+00
3.400000000000000000e+01,3.563125132097217040e+00
3.500000000000000000e+01,3.691624927001247780e+00
3.600000000000000000e+01,3.817779881807898068e+00
3.700000000000000000e+01,3.941605429680689276e+00
3.800000000000000000e+01,4.063164274015614197e+00
3.900000000000000000e+01,4.182427842691573971e+00
4.000000000000000000e+01,4.299449692959626645e+00
4.100000000000000000e+01,4.414271089987741092e+00
4.200000000000000000e+01,4.526936214357612620e+00
4.300000000000000000e+01,4.637499934258486611e+00
4.400000000000000000e+01,4.746016371004701639e+00
4.500000000000000000e+01,4.852547822897070873e+00
4.600000000000000000e+01,4.957148886504448626e+00
4.700000000000000000e+01,5.059879776276277497e+00
4.800000000000000000e+01,5.160791558021800007e+00
4.900000000000000000e+01,5.259944556954000205e+00
5.000000000000000000e+01,5.357386572832115057e+00
5.100000000000000000e+01,5.453163939435444085e+00
5.200000000000000000e+01,5.547322548919876972e+00
5.300000000000000000e+01,5.639905426339652195e+00
5.400000000000000000e+01,5.730954813104532697e+00
5.500000000000000000e+01,5.820511918663510365e+00
5.600000000000000000e+01,5.908611134288777933e+00
5.700000000000000000e+01,5.995294995100548086e+00
5.800000000000000000e+01,6.080591380809877933e+00
5.900000000000000000e+01,6.164538146636534321e+00
6.000000000000000000e+01,6.247168805775213940e+00
6.100000000000000000e+01,6.328511941048417633e+00
6.200000000000000000e+01,6.408597492877697199e+00
6.300000000000000000e+01,6.487454656526556285e+00
6.400000000000000000e+01,6.565151231437017287e+00
6.500000000000000000e+01,6.641655632436189727e+00
6.600000000000000000e+01,6.717008118528777771e+00
6.700000000000000000e+01,6.791235857008701693e+00
6.800000000000000000e+01,6.864370181313064201e+00
6.900000000000000000e+01,6.936434447505603451e+00
7.000000000000000000e+01,7.007457208747323030e+00
7.100000000000000000e+01,7.077467468523051863e+00
7.200000000000000000e+01,7.146482469091067102e+00
7.300000000000000000e+01,7.214525421870196631e+00
7.400000000000000000e+01,7.281612573131535093e+00
7.500000000000000000e+01,7.347762052022414281e+00
7.600000000000000000e+01,7.412989426288171479e+00
7.700000000000000000e+01,7.477313559757087447e+00
7.800000000000000000e+01,7.540748086536598116e+00
7.900000000000000000e+01,7.603310941378325083e+00
8.000000000000000000e+01,7.665017227438651659e+00
8.100000000000000000e+01,7.725877077402229176e+00
8.200000000000000000e+01,7.785906840356468628e+00
8.300000000000000000e+01,7.845119853319105552e+00
8.400000000000000000e+01,7.903527407640972058e+00
8.500000000000000000e+01,7.961140182880228622e+00
8.600000000000000000e+01,8.017973199074853952e+00
8.700000000000000000e+01,8.074037249408739569e+00
8.800000000000000000e+01,8.129341487511807074e+00
8.900000000000000000e+01,8.183894929646760019e+00
9.000000000000000000e+01,8.237711115539219975e+00
9.100000000000000000e+01,8.290798448018415812e+00
9.200000000000000000e+01,8.343202051905603156e+00
9.300000000000000000e+01,8.394870127317995312e+00
9.400000000000000000e+01,8.445835076447632872e+00
9.500000000000000000e+01,8.496115392500234620e+00
9.600000000000000000e+01,8.545728184788025317e+00
9.700000000000000000e+01,8.594689739419882457e+00
9.800000000000000000e+01,8.643003661497973056e+00
9.900000000000000000e+01,8.690668083929997678e+00
1.000000000000000000e+02,8.737682089297548416e+00
1.010000000000000000e+02,8.784044284987023943e+00
1.020000000000000000e+02,8.829752969392865580e+00
1.030000000000000000e+02,8.874811043405342659e+00
1.040000000000000000e+02,8.919217974021062645e+00
1.050000000000000000e+02,8.962976951511173240e+00
1.060000000000000000e+02,9.006088209596123662e+00
1.070000000000000000e+02,9.048553592325518480e+00
1.080000000000000000e+02,9.090372649017613327e+00
1.090000000000000000e+02,9.131546242546299652e+00
1.100000000000000000e+02,9.172071475455343403e+00
1.110000000000000000e+02,9.211948330609736502e+00
1.120000000000000000e+02,9.251171470523606999e+00
1.130000000000000000e+02,9.289736420318117638e+00
1.140000000000000000e+02,9.327636023210093441e+00
1.150000000000000000e+02,9.364860669912339119e+00
1.160000000000000000e+02,9.401399704678789604e+00
1.170000000000000000e+02,9.437240528399613027e+00
1.180000000000000000e+02,9.472368130627840443e+00
1.190000000000000000e+02,9.506779791833830373e+00
1.200000000000000000e+02,9.540467135102261409e+00
1.210000000000000000e+02,9.573452585181454921e+00
1.220000000000000000e+02,9.605728057470910741e+00
1.230000000000000000e+02,9.637258246610082679e+00
1.240000000000000000e+02,9.667985483952081793e+00
1.250000000000000000e+02,9.697859248907382934e+00
1.260000000000000000e+02,9.726844895400168056e+00
1.270000000000000000e+02,9.754917695249439191e+00
1.280000000000000000e+02,9.782061642145434277e+00
1.290000000000000000e+02,9.808259191398979837e+00
1.300000000000000000e+02,9.833500222418694037e+00
1.310000000000000000e+02,9.857773385129291910e+00
1.320000000000000000e+02,9.881073297206643957e+00
1.330000000000000000e+02,9.903398472222118443e+00
1.340000000000000000e+02,9.924752764200832189e+00
1.350000000000000000e+02,9.945147616194065066e+00
1.360000000000000000e+02,9.964598730295389117e+00
1.370000000000000000e+02,9.983130467260750152e+00
1.380000000000000000e+02,1.000077361020984590e+01
1.390000000000000000e+02,1.001756517818712311e+01
1.400000000000000000e+02,1.003354779301904820e+01
1.410000000000000000e+02,1.004934762778120572e+01
1.420000000000000000e+02,1.006433165971756161e+01
1.430000000000000000e+02,1.007866692437257328e+01
1.440000000000000000e+02,1.009235393949657400e+01
1.450000000000000000e+02,1.010539263933967113e+01
1.460000000000000000e+02,1.011785144810456849e+01
1.470000000000000000e+02,1.012982940009506017e+01
1.480000000000000000e+02,1.014142012227086376e+01
1.490000000000000000e+02,1.015269868772889339e+01
1.500000000000000000e+02,1.016372924293311364e+01
1.510000000000000000e+02,1.017456923336331265e+01
1.520000000000000000e+02,1.018526633989307051e+01
1.530000000000000000e+02,1.019586816867312784e+01
1.540000000000000000e+02,1.020641484526813159e+01
1.550000000000000000e+02,1.021694515303706297e+01
1.560000000000000000e+02,1.022749162479713014e+01
1.570000000000000000e+02,1.023808674881489544e+01
1.580000000000000000e+02,1.024875951167740418e+01
1.590000000000000000e+02,1.025953743209487357e+01
1.600000000000000000e+02,1.027044246451657195e+01
1.610000000000000000e+02,1.028422688532687523e+01
1.620000000000000000e+02,1.029665287734744084e+01
1.630000000000000000e+02,1.030853960572197892e+01
1.640000000000000000e+02,1.032029567255755254e+01
1.650000000000000000e+02,1.033209892574259037e+01
1.660000000000000000e+02,1.034413838844575473e+01
1.670000000000000000e+02,1.035648441647967744e+01
1.680000000000000000e+02,1.036915384163595277e+01
1.690000000000000000e+02,1.038216793773499269e+01
1.700000000000000000e+02,1.039553848674775161e+01
1.710000000000000000e+02,1.040927771976155647e+01
1.720000000000000000e+02,1.042340465872178612e+01
1.730000000000000000e+02,1.043794092942815865e+01
1.740000000000000000e+02,1.045290706594655461e+01
1.750000000000000000e+02,1.046833051938460457e+01
1.760000000000000000e+02,1.048424532126085751e+01
1.770000000000000000e+02,1.050068537182959894e+01
1.780000000000000000e+02,1.051768620569673551e+01
1.790000000000000000e+02,1.053528682523629456e+01
1.800000000000000000e+02,1.055353842716046664e+01
1.810000000000000000e+02,1.057248915895155150e+01
1.820000000000000000e+02,1.059218953064287660e+01
1.830000000000000000e+02,1.062121657429842436e+01
1.840000000000000000e+02,1.064388657469860000e+01
1.850000000000000000e+02,1.066580538490364383e+01
1.860000000000000000e+02,1.068880899097464798e+01
1.870000000000000000e+02,1.071332978419806814e+01
1.880000000000000000e+02,1.073923037822829940e+01
1.890000000000000000e+02,1.076657737664973702e+01
1.900000000000000000e+02,1.079549296971032923e+01
1.910000000000000000e+02,1.082607675750736043e+01
1.920000000000000000e+02,1.085852923076512155e+01
1.930000000000000000e+02,1.089302285025768136e+01
1.940000000000000000e+02,1.092979490337482318e+01
1.950000000000000000e+02,1.096910806725492726e+01
1.960000000000000000e+02,1.101126298526504677e+01
1.970000000000000000e+02,1.105659589655747155e+01
1.980000000000000000e+02,1.110548041705137301e+01
1.990000000000000000e+02,1.115829957149288454e+01
2.000000000000000000e+02,1.121540048188703587e+01
2.010000000000000000e+02,1.127703021654820859e+01
2.020000000000000000e+02,1.134317019774981183e+01
2.030000000000000000e+02,1.141337579258279789e+01
2.040000000000000000e+02,1.148662839808373981e+01
2.050000000000000000e+02,1.156133946481623198e+01
2.060000000000000000e+02,1.163555195753472127e+01
2.070000000000000000e+02,1.170750203630156250e+01
2.080000000000000000e+02,1.177600246183539667e+01
2.090000000000000000e+02,1.184058534526383610e+01
2.100000000000000000e+02,1.190131416057243463e+01
2.110000000000000000e+02,1.195848438758005727e+01
2.120000000000000000e+02,1.201250391748303237e+01
2.130000000000000000e+02,1.206374384918160558e+01
2.140000000000000000e+02,1.211252555643870643e+01
2.150000000000000000e+02,1.215912633306395385e+01
2.160000000000000000e+02,1.220379446738833096e+01
2.170000000000000000e+02,1.224671000157346867e+01
2.180000000000000000e+02,1.228804176983233276e+01
2.190000000000000000e+02,1.232793022829127416e+01
2.200000000000000000e+02,1.236648777102876728e+01
2.210000000000000000e+02,1.240381399065496026e+01
2.220000000000000000e+02,1.244000380941078276e+01
2.230000000000000000e+02,1.247513129727255965e+01
2.240000000000000000e+02,1.250926354667252838e+01
2.250000000000000000e+02,1.254245984239298473e+01
2.260000000000000000e+02,1.257477291045236711e+01
2.270000000000000000e+02,1.260624775347114301e+01
2.280000000000000000e+02,1.263692548958234774e+01
2.290000000000000000e+02,1.266684991251345238e+01
2.300000000000000000e+02,1.269605338306316611e+01
2.310000000000000000e+02,1.272456370643668855e+01
2.320000000000000000e+02,1.275240944383522645e+01
2.330000000000000000e+02,1.277961619343140853e+01
2.340000000000000000e+02,1.280621445610562503e+01
2.350000000000000000e+02,1.283221631049344502e+01
2.360000000000000000e+02,1.285765163002507272e+01
2.370000000000000000e+02,1.288253382054729634e+01
2.380000000000000000e+02,1.290688629280059274e+01
2.390000000000000000e+02,1.293071855354035549e+01
2.400000000000000000e+02,1.295404998031426480e+01
2.410000000000000000e+02,1.297689582050134227e+01
2.420000000000000000e+02,1.299927170823423772e+01
2.430000000000000000e+02,1.302118731538817187e+01
2.440000000000000000e+02,1.304265650578515867e+01
2.450000000000000000e+02,1.306368972793951322e+01
2.460000000000000000e+02,1.308430029890488555e+01
2.470000000000000000e+02,1.310450123007536760e+01
2.480000000000000000e+02,1.312429667589046467e+01
2.490000000000000000e+02,1.314370463539898815e+01
2.500000000000000000e+02,1.316272999866826510e+01
2.510000000000000000e+02,1.318138313419819774e+01
2.520000000000000000e+02,1.319967161843868730e+01
2.530000000000000000e+02,1.321760483484888837e+01
2.540000000000000000e+02,1.323519254996629613e+01
2.550000000000000000e+02,1.325244078018440597e+01
2.560000000000000000e+02,1.326935902399486267e+01
2.570000000000000000e+02,1.328595206405336349e+01
2.580000000000000000e+02,1.330222962130587838e+01
2.590000000000000000e+02,1.331819917011190491e+01
2.600000000000000000e+02,1.333386610027575792e+01
2.610000000000000000e+02,1.334923807948517727e+01
2.620000000000000000e+02,1.336431991741776137e+01
2.630000000000000000e+02,1.337911915894820503e+01
2.640000000000000000e+02,1.339364435961644872e+01
2.650000000000000000e+02,1.340789531023306047e+01
2.660000000000000000e+02,1.342188444482325593e+01
2.670000000000000000e+02,1.343561090191875529e+01
2.680000000000000000e+02,1.344908583729256080e+01
2.690000000000000000e+02,1.346231066764521067e+01
2.700000000000000000e+02,1.347529238219441261e+01
2.710000000000000000e+02,1.348803583342223789e+01
2.720000000000000000e+02,1.350054562162916483e+01
2.730000000000000000e+02,1.351282680390792201e+01
2.740000000000000000e+02,1.352488495544922564e+01
2.750000000000000000e+02,1.353672239744013339e+01
2.760000000000000000e+02,1.354834607067618180e+01
2.770000000000000000e+02,1.355975794746875884e+01
2.780000000000000000e+02,1.357096479939969491e+01
2.790000000000000000e+02,1.358196800573596619e+01
2.800000000000000000e+02,1.359277322836410029e+01
2.810000000000000000e+02,1.360338487527956630e+01
2.820000000000000000e+02,1.361380421682955699e+01
2.830000000000000000e+02,1.362403741982109295e+01
2.840000000000000000e+02,1.363408701031883830e+01
2.850000000000000000e+02,1.364395749803712299e+01
2.860000000000000000e+02,1.365365241157927123e+01
2.870000000000000000e+02,1.366317700268268531e+01
2.880000000000000000e+02,1.367253015729196974e+01
2.890000000000000000e+02,1.368171782214104581e+01
2.900000000000000000e+02,1.369074184124814941e+01
2.910000000000000000e+02,1.369960815457973169e+01
2.920000000000000000e+02,1.370831549733773613e+01
2.930000000000000000e+02,1.371687131113109359e+01
2.940000000000000000e+02,1.372527460204189609e+01
2.950000000000000000e+02,1.373353200557089515e+01
2.960000000000000000e+02,1.374164292542204002e+01
2.970000000000000000e+02,1.374961202257941117e+01
2.980000000000000000e+02,1.375744157780766486e+01
2.990000000000000000e+02,1.376513447128650292e+01
3.000000000000000000e+02,1.377269220494749824e+01
3.010000000000000000e+02,1.378011860917300169e+01
3.020000000000000000e+02,1.378741527377700393e+01
3.030000000000000000e+02,1.379458512828791505e+01
3.040000000000000000e+02,1.380163022304442677e+01
3.050000000000000000e+02,1.380855339168945406e+01
3.060000000000000000e+02,1.381535622370559935e+01
3.070000000000000000e+02,1.382204097034064105e+01
3.080000000000000000e+02,1.382861048050234487e+01
3.090000000000000000e+02,1.383506630245488722e+01
3.100000000000000000e+02,1.384141052325378851e+01
3.110000000000000000e+02,1.384764570550739471e+01
3.120000000000000000e+02,1.385377293383957387e+01
3.130000000000000000e+02,1.385979511239732354e+01
3.140000000000000000e+02,1.386571312135441758e+01
3.150000000000000000e+02,1.387152996265948701e+01
3.160000000000000000e+02,1.387724661797537706e+01
3.170000000000000000e+02,1.388286509410263214e+01
3.180000000000000000e+02,1.388838829765670901e+01
3.190000000000000000e+02,1.389381530182003743e+01
3.200000000000000000e+02,1.389915045060162058e+01
3.210000000000000000e+02,1.390439425652412275e+01
3.220000000000000000e+02,1.390954880021611295e+01
3.230000000000000000e+02,1.391461542728895751e+01
3.240000000000000000e+02,1.391959577830026618e+01
3.250000000000000000e+02,1.392449106338659526e+01
3.260000000000000000e+02,1.392930308959256180e+01
3.270000000000000000e+02,1.393403299286247332e+01
3.280000000000000000e+02,1.393868280701519602e+01
3.290000000000000000e+02,1.394325311266845802e+01
3.300000000000000000e+02,1.394774623130858870e+01
3.310000000000000000e+02,1.395216303269322111e+01
3.320000000000000000e+02,1.395650444204870411e+01
3.330000000000000000e+02,1.396077240096118999e+01
3.340000000000000000e+02,1.396496848385069534e+01
3.350000000000000000e+02,1.396909395923891672e+01
3.360000000000000000e+02,1.397314895142980440e+01
3.370000000000000000e+02,1.397713609902564613e+01
3.380000000000000000e+02,1.398105593662305068e+01
3.390000000000000000e+02,1.398490923514645345e+01
3.400000000000000000e+02,1.398869765928897912e+01
3.410000000000000000e+02,1.399242274878444547e+01
3.420000000000000000e+02,1.399608418589857095e+01
3.430000000000000000e+02,1.399968499661525456e+01
3.440000000000000000e+02,1.400322419941163865e+01
3.450000000000000000e+02,1.400670516891379691e+01
3.460000000000000000e+02,1.401012656015245916e+01
3.470000000000000000e+02,1.401349096357136581e+01
3.480000000000000000e+02,1.401679846082499026e+01
3.490000000000000000e+02,1.402005097823755442e+01
3.500000000000000000e+02,1.402324859194397000e+01
3.510000000000000000e+02,1.402639280468708805e+01
3.520000000000000000e+02,1.402948404477783129e+01
3.530000000000000000e+02,1.403252386811209718e+01
3.540000000000000000e+02,1.403551234119843194e+01
3.550000000000000000e+02,1.403845166765780306e+01
3.560000000000000000e+02,1.404134125583363613e+01
3.570000000000000000e+02,1.404418282864857481e+01
3.580000000000000000e+02,1.404697697806325785e+01
3.590000000000000000e+02,1.404972405694120141e+01
3.600000000000000000e+02,1.405242548370281241e+01
3.610000000000000000e+02,1.405508178483960968e+01
3.620000000000000000e+02,1.405769407754563005e+01
3.630000000000000000e+02,1.406026241068558136e+01
3.640000000000000000e+02,1.406278819367337896e+01
3.650000000000000000e+02,1.406527194555246041e+01
3.660000000000000000e+02,1.406771400643679470e+01
3.670000000000000000e+02,1.407011589785579631e+01
3.680000000000000000e+02,1.407247760168480788e+01
3.690000000000000000e+02,1.407479998552186906e+01
3.700000000000000000e+02,1.407708367887552292e+01
3.710000000000000000e+02,1.407932954601939635e+01
3.720000000000000000e+02,1.408153797723789502e+01
3.730000000000000000e+02,1.408370965681999643e+01
3.740000000000000000e+02,1.408584532663810762e+01
3.750000000000000000e+02,1.408794549119043005e+01
3.760000000000000000e+02,1.409001118451750934e+01
3.770000000000000000e+02,1.409204249578888479e+01
3.780000000000000000e+02,1.409403969036690896e+01
3.790000000000000000e+02,1.409600403435941196e+01
3.800000000000000000e+02,1.409793614412510188e+01
3.810000000000000000e+02,1.409983575167924919e+01
3.820000000000000000e+02,1.410170429600733932e+01
3.830000000000000000e+02,1.410354150747732405e+01
3.840000000000000000e+02,1.410534841071775780e+01
3.850000000000000000e+02,1.410712573480907572e+01
3.860000000000000000e+02,1.410887320801537648e+01
3.870000000000000000e+02,1.411059226347029494e+01
3.880000000000000000e+02,1.411228251044273918e+01
3.890000000000000000e+02,1.411394479227924847e+01
3.900000000000000000e+02,1.411557977494593530e+01
3.910000000000000000e+02,1.411718782978870479e+01
3.920000000000000000e+02,1.411876903388838045e+01
3.930000000000000000e+02,1.412032440333152827e+01
3.940000000000000000e+02,1.412185366165817157e+01
3.950000000000000000e+02,1.412335823425443593e+01
3.960000000000000000e+02,1.412483772614572786e+01
3.970000000000000000e+02,1.412629262234978000e+01
3.980000000000000000e+02,1.412772358317656796e+01
3.990000000000000000e+02,1.412913097496678105e+01
4.000000000000000000e+02,1.413051551529245842e+01
4.010000000000000000e+02,1.413187692448229171e+01
4.020000000000000000e+02,1.413321591912646547e+01
4.030000000000000000e+02,1.413453280490499786e+01
4.040000000000000000e+02,1.413582800422787322e+01
4.050000000000000000e+02,1.413710182185193709e+01
4.060000000000000000e+02,1.413835473780501140e+01
4.070000000000000000e+02,1.413958705593477916e+01
4.080000000000000000e+02,1.414079878699126525e+01
4.090000000000000000e+02,1.414199105363448083e+01
4.100000000000000000e+02,1.414316339751832707e+01
4.110000000000000000e+02,1.414431670621450010e+01
4.120000000000000000e+02,1.414545046249409666e+01
4.130000000000000000e+02,1.414656625506746046e+01
4.140000000000000000e+02,1.414766327363861720e+01
4.150000000000000000e+02,1.414874228710853821e+01
4.160000000000000000e+02,1.414980365450205468e+01
4.170000000000000000e+02,1.415084773449600064e+01
4.180000000000000000e+02,1.415187412558338664e+01
4.190000000000000000e+02,1.415288400427497173e+01
4.200000000000000000e+02,1.415387737762867992e+01
4.210000000000000000e+02,1.415485448628395027e+01
4.220000000000000000e+02,1.415581510329856307e+01
4.230000000000000000e+02,1.415676028674418241e+01
4.240000000000000000e+02,1.415768998439234494e+01
4.250000000000000000e+02,1.415860420233551409e+01
4.260000000000000000e+02,1.415950370558852534e+01
4.270000000000000000e+02,1.416038814947583013e+01
4.280000000000000000e+02,1.416125824009927037e+01
4.290000000000000000e+02,1.416211398274279354e+01
4.300000000000000000e+02,1.416295567439211389e+01
4.310000000000000000e+02,1.416378378686161454e+01
4.320000000000000000e+02,1.416459791649602806e+01
4.330000000000000000e+02,1.416539911819629260e+01
4.340000000000000000e+02,1.416618669636525496e+01
4.350000000000000000e+02,1.416696170539514199e+01
4.360000000000000000e+02,1.416772385781185228e+01
4.370000000000000000e+02,1.416847379920019456e+01
4.380000000000000000e+02,1.416921118359350729e+01
4.390000000000000000e+02,1.416993642301304490e+01
4.400000000000000000e+02,1.417064987095305995e+01
4.410000000000000000e+02,1.417135182241671032e+01
4.420000000000000000e+02,1.417204198940004112e+01
4.430000000000000000e+02,1.417272066673166542e+01
4.440000000000000000e+02,1.417338867352141918e+01
4.450000000000000000e+02,1.417404554664834038e+01
4.460000000000000000e+02,1.417469169703615783e+01
4.470000000000000000e+02,1.417532712761461688e+01
4.480000000000000000e+02,1.417595219077136726e+01
4.490000000000000000e+02,1.417656723872348401e+01
4.500000000000000000e+02,1.417717192462824194e+01
4.510000000000000000e+02,1.417776694997068354e+01
4.520000000000000000e+02,1.417835237541261684e+01
4.530000000000000000e+02,1.417892773751590951e+01
4.540000000000000000e+02,1.417949385383835903e+01
4.550000000000000000e+02,1.418005072659276955e+01
4.560000000000000000e+02,1.418059859080748453e+01
4.570000000000000000e+02,1.418113756498618727e+01
4.580000000000000000e+02,1.418166765115439709e+01
4.590000000000000000e+02,1.418218879310376401e+01
4.600000000000000000e+02,1.418270169115421808e+01
4.610000000000000000e+02,1.418320640528468246e+01
4.620000000000000000e+02,1.418370223899016125e+01
4.630000000000000000e+02,1.418419053235426297e+01
4.640000000000000000e+02,1.418467064695720481e+01
4.650000000000000000e+02,1.418514293351330302e+01
4.660000000000000000e+02,1.418560733541321284e+01
4.670000000000000000e+02,1.418606426138200938e+01
4.680000000000000000e+02,1.418651371286340357e+01
4.690000000000000000e+02,1.418695569127720013e+01
4.700000000000000000e+02,1.418739054696331969e+01
4.710000000000000000e+02,1.418781828123074540e+01
4.720000000000000000e+02,1.418823918611865764e+01
4.730000000000000000e+02,1.418865303025389935e+01
4.740000000000000000e+02,1.418906010558956154e+01
4.750000000000000000e+02,1.418946076213222618e+01
4.760000000000000000e+02,1.418985465214583996e+01
4.770000000000000000e+02,1.419024212556045050e+01
4.780000000000000000e+02,1.419062318342666806e+01
4.790000000000000000e+02,1.419099817554411835e+01
4.800000000000000000e+02,1.419136681225021235e+01
4.810000000000000000e+02,1.419172973387444259e+01
4.820000000000000000e+02,1.419208659258009142e+01
4.830000000000000000e+02,1.419243773797721175e+01
4.840000000000000000e+02,1.419278288034773539e+01
4.850000000000000000e+02,1.419312231111893752e+01
4.860000000000000000e+02,1.419345643786337341e+01
4.870000000000000000e+02,1.419378520322485926e+01
4.880000000000000000e+02,1.419410860794810425e+01
4.890000000000000000e+02,1.419442671086525110e+01
4.900000000000000000e+02,1.419473945459170849e+01
4.910000000000000000e+02,1.419504689793020269e+01
4.920000000000000000e+02,1.419534968058267843e+01
4.930000000000000000e+02,1.419564751269682823e+01
4.940000000000000000e+02,1.419594039489554937e+01
4.950000000000000000e+02,1.419622826970635998e+01
4.960000000000000000e+02,1.419651189281235482e+01
4.970000000000000000e+02,1.419679050967853762e+01
4.980000000000000000e+02,1.419706487590945621e+01
4.990000000000000000e+02,1.419733429508708333e+01
5.000000000000000000e+02,1.419759975502779348e+01
5.010000000000000000e+02,1.419786061738812144e+01
5.020000000000000000e+02,1.419811763757803824e+01
5.030000000000000000e+02,1.419836994500342620e+01
5.040000000000000000e+02,1.419861841114745182e+01
5.050000000000000000e+02,1.419886292028649599e+01
5.060000000000000000e+02,1.419910318252212633e+01
5.070000000000000000e+02,1.419933954664230846e+01
5.080000000000000000e+02,1.419957236138175460e+01
5.090000000000000000e+02,1.419980093042092051e+01
5.100000000000000000e+02,1.420002629913954628e+01
5.110000000000000000e+02,1.420024742290513231e+01
5.120000000000000000e+02,1.420046528896908811e+01
5.130000000000000000e+02,1.420067966543705573e+01
5.140000000000000000e+02,1.420089049457819108e+01
5.150000000000000000e+02,1.420109771866326476e+01
5.160000000000000000e+02,1.420130145409470401e+01
5.170000000000000000e+02,1.420150228159082140e+01
5.180000000000000000e+02,1.420169962099632777e+01
5.190000000000000000e+02,1.420189341456333842e+01
5.200000000000000000e+02,1.420208430098967156e+01
5.210000000000000000e+02,1.420227239658072449e+01
5.220000000000000000e+02,1.420245694711616480e+01
5.230000000000000000e+02,1.420263864926259423e+01
5.240000000000000000e+02,1.420281756126965078e+01
5.250000000000000000e+02,1.420299356728891560e+01
5.260000000000000000e+02,1.420316643542356871e+01
5.270000000000000000e+02,1.420333674617088704e+01
5.280000000000000000e+02,1.420350391946032964e+01
5.290000000000000000e+02,1.420366859377858759e+01
5.300000000000000000e+02,1.420383082732222846e+01
5.310000000000000000e+02,1.420399015608666993e+01
5.320000000000000000e+02,1.420414669630776139e+01
5.330000000000000000e+02,1.420430073826455875e+01
5.340000000000000000e+02,1.420445268824348695e+01
5.350000000000000000e+02,1.420460173414808303e+01
5.360000000000000000e+02,1.420474868837511906e+01
5.370000000000000000e+02,1.420489279687108919e+01
5.380000000000000000e+02,1.420503481397749113e+01
5.390000000000000000e+02,1.420517468180794118e+01
5.400000000000000000e+02,1.420531205242531847e+01
5.410000000000000000e+02,1.420544727403194152e+01
5.420000000000000000e+02,1.420558040475901684e+01
5.430000000000000000e+02,1.420571103867215079e+01
5.440000000000000000e+02,1.420583992999190492e+01
5.450000000000000000e+02,1.420596632474379639e+01
5.460000000000000000e+02,1.420609097711725255e+01
5.470000000000000000e+02,1.420621342317745217e+01
5.480000000000000000e+02,1.420633383704548436e+01
5.490000000000000000e+02,1.420645239282877981e+01
5.500000000000000000e+02,1.420656885861869689e+01
5.510000000000000000e+02,1.420668358251490382e+01
5.520000000000000000e+02,1.420679650660322935e+01
5.530000000000000000e+02,1.420690728298358430e+01
5.540000000000000000e+02,1.420701666571434174e+01
5.550000000000000000e+02,1.420712395890930146e+01
5.560000000000000000e+02,1.420722980060837770e+01
5.570000000000000000e+02,1.420733349494639342e+01
5.580000000000000000e+02,1.420743579593080241e+01
5.590000000000000000e+02,1.420753629767418857e+01
5.600000000000000000e+02,1.420763540619486243e+01
5.610000000000000000e+02,1.420773277360566311e+01
5.620000000000000000e+02,1.420782834198803890e+01
5.630000000000000000e+02,1.420792245935078135e+01
5.640000000000000000e+02,1.420801518374016226e+01
5.650000000000000000e+02,1.420810616728353537e+01
5.660000000000000000e+02,1.420819604790625590e+01
5.670000000000000000e+02,1.420828418779967350e+01
5.680000000000000000e+02,1.420837087695709577e+01
5.690000000000000000e+02,1.420845617341663569e+01
5.700000000000000000e+02,1.420854007722844869e+01
5.710000000000000000e+02,1.420862253045822321e+01
5.720000000000000000e+02,1.420870393903737394e+01
5.730000000000000000e+02,1.420878389712548007e+01
5.740000000000000000e+02,1.420886246275320808e+01
5.750000000000000000e+02,1.420893963596674681e+01
5.760000000000000000e+02,1.420901570671367864e+01
5.770000000000000000e+02,1.420909038513025990e+01
5.780000000000000000e+02,1.420916396115655722e+01
5.790000000000000000e+02,1.420923655078409453e+01
5.800000000000000000e+02,1.420930763224058779e+01
5.810000000000000000e+02,1.420937772736870386e+01
5.820000000000000000e+02,1.420944672024378796e+01
5.830000000000000000e+02,1.420951466887431991e+01
5.840000000000000000e+02,1.420958116745947031e+01
5.850000000000000000e+02,1.420964662186701943e+01
5.860000000000000000e+02,1.420971137997442213e+01
5.870000000000000000e+02,1.420977474610977254e+01
5.880000000000000000e+02,1.420983735802145098e+01
5.890000000000000000e+02,1.420989857802380563e+01
5.900000000000000000e+02,1.420995910182577582e+01
5.910000000000000000e+02,1.421001852363934681e+01
5.920000000000000000e+02,1.421007690146395319e+01
5.930000000000000000e+02,1.421013458315320044e+01
5.940000000000000000e+02,1.421019122089895248e+01
5.950000000000000000e+02,1.421024675675578131e+01
5.960000000000000000e+02,1.421030159653917302e+01
5.970000000000000000e+02,1.421035539244819113e+01
5.980000000000000000e+02,1.421040843435194034e+01