# Time [s], Temperature [C]
1.000000000000000000e+00,2.500000000000000000e+01
2.000000000000000000e+00,2.500000000000000000e+01
3.000000000000000000e+00,2.500000000000000000e+01
4.000000000000000000e+00,2.500000000000000000e+01
5.000000000000000000e+00,2.500000400000000056e+01
6.000000000000000000e+00,2.500001900000000177e+01
7.000000000000000000e+00,2.500008199999999903e+01
8.000000000000000000e+00,2.500028999999999968e+01
9.000000000000000000e+00,2.500086399999999998e+01
1.000000000000000000e+01,2.500224899999999906e+01
1.100000000000000000e+01,2.500520900000000069e+01
1.200000000000000000e+01,2.501091600000000170e+01
1.300000000000000000e+01,2.502100400000000135e+01
1.400000000000000000e+01,2.503756299999999868e+01
1.500000000000000000e+01,2.506310300000000169e+01
1.600000000000000000e+01,2.510046799999999934e+01
1.700000000000000000e+01,2.515273300000000134e+01
1.800000000000000000e+01,2.522310600000000136e+01
1.900000000000000000e+01,2.531483100000000164e+01
2.000000000000000000e+01,2.543108900000000006e+01
2.100000000000000000e+01,2.557493799999999951e+01
2.200000000000000000e+01,2.574924499999999838e+01
2.300000000000000000e+01,2.595666299999999893e+01
2.400000000000000000e+01,2.619958899999999957e+01
2.500000000000000000e+01,2.648014799999999980e+01
2.600000000000000000e+01,2.680019800000000174e+01
2.700000000000000000e+01,2.716131999999999991e+01
2.800000000000000000e+01,2.756483300000000014e+01
2.900000000000000000e+01,2.801179099999999877e+01
3.000000000000000000e+01,2.850301599999999880e+01
3.100000000000000000e+01,2.903910300000000078e+01
3.200000000000000000e+01,2.962044300000000163e+01
3.300000000000000000e+01,3.024719999999999942e+01
3.400000000000000000e+01,3.091938800000000143e+01
3.500000000000000000e+01,3.163684299999999894e+01
3.600000000000000000e+01,3.239924599999999799e+01
3.700000000000000000e+01,3.320613099999999918e+01
3.800000000000000000e+01,3.405688899999999819e+01
3.900000000000000000e+01,3.495079400000000192e+01
4.000000000000000000e+01,3.588701999999999970e+01
4.100000000000000000e+01,3.686462399999999917e+01
4.200000000000000000e+01,3.788254899999999736e+01
4.300000000000000000e+01,3.893972000000000122e+01
4.400000000000000000e+01,4.003494299999999839e+01
4.500000000000000000e+01,4.116697700000000282e+01
4.600000000000000000e+01,4.233451099999999911e+01
4.700000000000000000e+01,4.353622399999999715e+01
4.800000000000000000e+01,4.477077100000000343e+01
4.900000000000000000e+01,4.603679300000000296e+01
5.000000000000000000e+01,4.738472699999999804e+01
5.100000000000000000e+01,4.873115200000000158e+01
5.200000000000000000e+01,5.009759499999999832e+01
5.300000000000000000e+01,5.148770900000000239e+01
5.400000000000000000e+01,5.290090200000000209e+01
5.500000000000000000e+01,5.433646399999999943e+01
5.600000000000000000e+01,5.579338099999999656e+01
5.700000000000000000e+01,5.727064500000000180e+01
5.800000000000000000e+01,5.876724999999999710e+01
5.900000000000000000e+01,6.028221099999999666e+01
6.000000000000000000e+01,6.181454500000000252e+01
6.100000000000000000e+01,6.336335799999999807e+01
6.200000000000000000e+01,6.492775000000000318e+01
6.300000000000000000e+01,6.650685900000000572e+01
6.400000000000000000e+01,6.809984599999999944e+01
6.500000000000000000e+01,6.970590199999999470e+01
6.600000000000000000e+01,7.132428699999999822e+01
6.700000000000000000e+01,7.295426199999999994e+01
6.800000000000000000e+01,7.459514599999999973e+01
6.900000000000000000e+01,7.624633799999999439e+01
7.000000000000000000e+01,7.790716600000000369e+01
7.100000000000000000e+01,7.957704200000000583e+01
7.200000000000000000e+01,8.125544700000000375e+01
7.300000000000000000e+01,8.294190199999999891e+01
7.400000000000000000e+01,8.463591800000000376e+01
7.500000000000000000e+01,8.633705899999999644e+01
7.600000000000000000e+01,8.804487600000000214e+01
7.700000000000000000e+01,8.975901000000000352e+01
7.800000000000000000e+01,9.147912599999999372e+01
7.900000000000000000e+01,9.320482599999999707e+01
8.000000000000000000e+01,9.493580599999999947e+01
8.100000000000000000e+01,9.667178300000000490e+01
8.200000000000000000e+01,9.841244500000000528e+01
8.300000000000000000e+01,1.001575200000000052e+02
8.400000000000000000e+01,1.019067900000000009e+02
8.500000000000000000e+01,1.036599700000000013e+02
8.600000000000000000e+01,1.054167999999999950e+02
8.700000000000000000e+01,1.071770900000000069e+02
8.800000000000000000e+01,1.089405799999999971e+02
8.900000000000000000e+01,1.107070899999999938e+02
9.000000000000000000e+01,1.124775300000000016e+02
9.100000000000000000e+01,1.142498899999999935e+02
9.200000000000000000e+01,1.160244500000000016e+02
9.300000000000000000e+01,1.178011199999999974e+02
9.400000000000000000e+01,1.195797299999999979e+02
9.500000000000000000e+01,1.213601400000000012e+02
9.600000000000000000e+01,1.231422500000000042e+02
9.700000000000000000e+01,1.249259299999999939e+02
9.800000000000000000e+01,1.267111400000000003e+02
9.900000000000000000e+01,1.284977299999999900e+02
1.000000000000000000e+02,1.302856299999999976e+02
1.010000000000000000e+02,1.320746300000000133e+02
1.020000000000000000e+02,1.338646099999999990e+02
1.030000000000000000e+02,1.356552900000000079e+02
1.040000000000000000e+02,1.374464700000000050e+02
1.050000000000000000e+02,1.392379599999999868e+02
1.060000000000000000e+02,1.410294600000000003e+02
1.070000000000000000e+02,1.428207899999999881e+02
1.080000000000000000e+02,1.446116600000000005e+02
1.090000000000000000e+02,1.464019000000000119e+02
1.100000000000000000e+02,1.481912399999999934e+02
1.110000000000000000e+02,1.499794899999999984e+02
1.120000000000000000e+02,1.517664000000000044e+02
1.130000000000000000e+02,1.535518199999999922e+02
1.140000000000000000e+02,1.553354600000000119e+02
1.150000000000000000e+02,1.571171899999999937e+02
1.160000000000000000e+02,1.588967100000000130e+02
1.170000000000000000e+02,1.606738900000000001e+02
1.180000000000000000e+02,1.624484600000000114e+02
1.190000000000000000e+02,1.642202000000000055e+02
1.200000000000000000e+02,1.659889400000000137e+02
1.210000000000000000e+02,1.677544300000000135e+02
1.220000000000000000e+02,1.695164800000000014e+02
1.230000000000000000e+02,1.712748400000000117e+02
1.240000000000000000e+02,1.730293100000000095e+02
1.250000000000000000e+02,1.747796899999999880e+02
1.260000000000000000e+02,1.765257100000000037e+02
1.270000000000000000e+02,1.782671799999999962e+02
1.280000000000000000e+02,1.800038499999999999e+02
1.290000000000000000e+02,1.817363300000000095e+02
1.300000000000000000e+02,1.834631699999999910e+02
1.310000000000000000e+02,1.851844600000000014e+02
1.320000000000000000e+02,1.869000200000000120e+02
1.330000000000000000e+02,1.886098499999999945e+02
1.340000000000000000e+02,1.903138899999999865e+02
1.350000000000000000e+02,1.920120699999999943e+02
1.360000000000000000e+02,1.937042399999999986e+02
1.370000000000000000e+02,1.953901700000000119e+02
1.380000000000000000e+02,1.970695499999999925e+02
1.390000000000000000e+02,1.987419899999999870e+02
1.400000000000000000e+02,2.004070299999999918e+02
1.410000000000000000e+02,2.020642899999999997e+02
1.420000000000000000e+02,2.037133900000000040e+02
1.430000000000000000e+02,2.053539299999999912e+02
1.440000000000000000e+02,2.069855499999999893e+02
1.450000000000000000e+02,2.086078599999999881e+02
1.460000000000000000e+02,2.102204999999999870e+02
1.470000000000000000e+02,2.118230700000000013e+02
1.480000000000000000e+02,2.134152100000000019e+02
1.490000000000000000e+02,2.149965200000000038e+02
1.500000000000000000e+02,2.165665999999999940e+02
1.510000000000000000e+02,2.181250599999999906e+02
1.520000000000000000e+02,2.196714499999999930e+02
1.530000000000000000e+02,2.212053200000000004e+02
1.540000000000000000e+02,2.227262599999999964e+02
1.550000000000000000e+02,2.242337599999999895e+02
1.560000000000000000e+02,2.257273600000000044e+02
1.570000000000000000e+02,2.272065599999999961e+02
1.580000000000000000e+02,2.286708500000000015e+02
1.590000000000000000e+02,2.301196600000000103e+02
1.600000000000000000e+02,2.315524900000000059e+02
1.610000000000000000e+02,2.329687299999999937e+02
1.620000000000000000e+02,2.343678600000000074e+02
1.630000000000000000e+02,2.357492699999999957e+02
1.640000000000000000e+02,2.371123699999999985e+02
1.650000000000000000e+02,2.384590499999999906e+02
1.660000000000000000e+02,2.397854800000000068e+02
1.670000000000000000e+02,2.410923799999999915e+02
1.680000000000000000e+02,2.423797299999999950e+02
1.690000000000000000e+02,2.436472500000000139e+02
1.700000000000000000e+02,2.448942399999999964e+02
1.710000000000000000e+02,2.461198100000000011e+02
1.720000000000000000e+02,2.473229100000000074e+02
1.730000000000000000e+02,2.485025899999999979e+02
1.740000000000000000e+02,2.496580700000000093e+02
1.750000000000000000e+02,2.507886499999999899e+02
1.760000000000000000e+02,2.518938300000000083e+02
1.770000000000000000e+02,2.529731299999999976e+02
1.780000000000000000e+02,2.540261700000000076e+02
1.790000000000000000e+02,2.550527299999999968e+02
1.800000000000000000e+02,2.560525499999999965e+02
1.810000000000000000e+02,2.570255399999999781e+02
1.820000000000000000e+02,2.579716500000000110e+02
1.830000000000000000e+02,2.588908400000000256e+02
1.840000000000000000e+02,2.597832300000000032e+02
1.850000000000000000e+02,2.606490499999999884e+02
1.860000000000000000e+02,2.614884900000000130e+02
1.870000000000000000e+02,2.623019100000000208e+02
1.880000000000000000e+02,2.630897199999999998e+02
1.890000000000000000e+02,2.638524199999999951e+02
1.900000000000000000e+02,2.645905200000000264e+02
1.910000000000000000e+02,2.653046899999999937e+02
1.920000000000000000e+02,2.659955400000000054e+02
1.930000000000000000e+02,2.666639400000000251e+02
1.940000000000000000e+02,2.673105499999999779e+02
1.950000000000000000e+02,2.679363099999999918e+02
1.960000000000000000e+02,2.685420500000000175e+02
1.970000000000000000e+02,2.691470299999999725e+02
1.980000000000000000e+02,2.697281199999999899e+02
1.990000000000000000e+02,2.702923599999999738e+02
2.000000000000000000e+02,2.708412799999999834e+02
2.010000000000000000e+02,2.713745999999999867e+02
2.020000000000000000e+02,2.718923599999999965e+02
2.030000000000000000e+02,2.723950800000000072e+02
2.040000000000000000e+02,2.728836099999999760e+02
2.050000000000000000e+02,2.733590399999999931e+02
2.060000000000000000e+02,2.738225699999999847e+02
2.070000000000000000e+02,2.742753299999999967e+02
2.080000000000000000e+02,2.747184100000000058e+02
2.090000000000000000e+02,2.751528299999999945e+02
2.100000000000000000e+02,2.755794999999999959e+02
2.110000000000000000e+02,2.759993600000000242e+02
2.120000000000000000e+02,2.764131800000000112e+02
2.130000000000000000e+02,2.768217200000000275e+02
2.140000000000000000e+02,2.772257099999999923e+02
2.150000000000000000e+02,2.776258199999999761e+02
2.160000000000000000e+02,2.780227399999999989e+02
2.170000000000000000e+02,2.784169899999999984e+02
2.180000000000000000e+02,2.788091699999999946e+02
2.190000000000000000e+02,2.791997999999999820e+02
2.200000000000000000e+02,2.795893899999999803e+02
2.210000000000000000e+02,2.799783300000000281e+02
2.220000000000000000e+02,2.803670700000000124e+02
2.230000000000000000e+02,2.807560100000000034e+02
2.240000000000000000e+02,2.811455399999999827e+02
2.250000000000000000e+02,2.815359500000000139e+02
2.260000000000000000e+02,2.819275799999999776e+02
2.270000000000000000e+02,2.823989599999999882e+02
2.280000000000000000e+02,2.828347800000000234e+02
2.290000000000000000e+02,2.832593400000000088e+02
2.300000000000000000e+02,2.836781599999999912e+02
2.310000000000000000e+02,2.840928000000000111e+02
2.320000000000000000e+02,2.845054299999999898e+02
2.330000000000000000e+02,2.849177599999999870e+02
2.340000000000000000e+02,2.853312099999999987e+02
2.350000000000000000e+02,2.857468600000000265e+02
2.360000000000000000e+02,2.861653400000000147e+02
2.370000000000000000e+02,2.865872499999999832e+02
2.380000000000000000e+02,2.870129400000000146e+02
2.390000000000000000e+02,2.874426599999999894e+02
2.400000000000000000e+02,2.878766499999999837e+02
2.410000000000000000e+02,2.883151599999999917e+02
2.420000000000000000e+02,2.887583599999999819e+02
2.430000000000000000e+02,2.892064199999999801e+02
2.440000000000000000e+02,2.896593899999999735e+02
2.450000000000000000e+02,2.901175499999999943e+02
2.460000000000000000e+02,2.905809899999999857e+02
2.470000000000000000e+02,2.910499599999999987e+02
2.480000000000000000e+02,2.915247200000000021e+02
2.490000000000000000e+02,2.920051900000000273e+02
2.500000000000000000e+02,2.924916999999999803e+02
2.510000000000000000e+02,2.929844100000000253e+02
2.520000000000000000e+02,2.934834299999999985e+02
2.530000000000000000e+02,2.939890100000000075e+02
2.540000000000000000e+02,2.945013999999999896e+02
2.550000000000000000e+02,2.950206900000000019e+02
2.560000000000000000e+02,2.955471800000000258e+02
2.570000000000000000e+02,2.960811499999999796e+02
2.580000000000000000e+02,2.966227700000000027e+02
2.590000000000000000e+02,2.971724199999999882e+02
2.600000000000000000e+02,2.979795500000000175e+02
2.610000000000000000e+02,2.986207299999999805e+02
2.620000000000000000e+02,2.992141399999999862e+02
2.630000000000000000e+02,2.998027599999999779e+02
2.640000000000000000e+02,3.003936499999999796e+02
2.650000000000000000e+02,3.009924599999999941e+02
2.660000000000000000e+02,3.016014700000000062e+02
2.670000000000000000e+02,3.022219200000000114e+02
2.680000000000000000e+02,3.028543999999999983e+02
2.690000000000000000e+02,3.034988700000000108e+02
2.700000000000000000e+02,3.041559799999999996e+02
2.710000000000000000e+02,3.048258700000000090e+02
2.720000000000000000e+02,3.055090000000000146e+02
2.730000000000000000e+02,3.062053799999999910e+02
2.740000000000000000e+02,3.069157099999999900e+02
2.750000000000000000e+02,3.076402899999999931e+02
2.760000000000000000e+02,3.083798199999999952e+02
2.770000000000000000e+02,3.091346700000000283e+02
2.780000000000000000e+02,3.099055799999999863e+02
2.790000000000000000e+02,3.106929900000000089e+02
2.800000000000000000e+02,3.114973100000000272e+02
2.810000000000000000e+02,3.123195799999999736e+02
2.820000000000000000e+02,3.131607399999999757e+02
2.830000000000000000e+02,3.140209699999999771e+02
2.840000000000000000e+02,3.149015200000000050e+02
2.850000000000000000e+02,3.158031899999999723e+02
2.860000000000000000e+02,3.167275099999999952e+02
2.870000000000000000e+02,3.176747399999999857e+02
2.880000000000000000e+02,3.186459699999999771e+02
2.890000000000000000e+02,3.196421799999999962e+02
2.900000000000000000e+02,3.206652199999999766e+02
2.910000000000000000e+02,3.217164300000000026e+02
2.920000000000000000e+02,3.227961099999999988e+02
2.930000000000000000e+02,3.239067999999999756e+02
2.940000000000000000e+02,3.250494699999999852e+02
2.950000000000000000e+02,3.262258899999999926e+02
2.960000000000000000e+02,3.274375900000000001e+02
2.970000000000000000e+02,3.286862499999999727e+02
2.980000000000000000e+02,3.299737200000000144e+02
2.990000000000000000e+02,3.320089699999999766e+02
3.000000000000000000e+02,3.334835499999999797e+02
3.010000000000000000e+02,3.348935500000000047e+02
3.020000000000000000e+02,3.363527199999999766e+02
3.030000000000000000e+02,3.378648400000000152e+02
3.040000000000000000e+02,3.394348100000000272e+02
3.050000000000000000e+02,3.410633500000000140e+02
3.060000000000000000e+02,3.427530199999999923e+02
3.070000000000000000e+02,3.445062300000000164e+02
3.080000000000000000e+02,3.463261699999999905e+02
3.090000000000000000e+02,3.482171599999999785e+02
3.100000000000000000e+02,3.501809700000000021e+02
3.110000000000000000e+02,3.522217999999999734e+02
3.120000000000000000e+02,3.543446700000000078e+02
3.130000000000000000e+02,3.565528299999999717e+02
3.140000000000000000e+02,3.588507700000000114e+02
3.150000000000000000e+02,3.612424300000000130e+02
3.160000000000000000e+02,3.637333399999999983e+02
3.170000000000000000e+02,3.663264199999999846e+02
3.180000000000000000e+02,3.690269200000000183e+02
3.190000000000000000e+02,3.718390499999999861e+02
3.200000000000000000e+02,3.747640999999999849e+02
3.210000000000000000e+02,3.778063999999999965e+02
3.220000000000000000e+02,3.809668899999999780e+02
3.230000000000000000e+02,3.842430699999999888e+02
3.240000000000000000e+02,3.876314699999999789e+02
3.250000000000000000e+02,3.911246600000000058e+02
3.260000000000000000e+02,3.947106899999999996e+02
3.270000000000000000e+02,3.983725900000000024e+02
3.280000000000000000e+02,4.020881999999999721e+02
3.290000000000000000e+02,4.058327899999999886e+02
3.300000000000000000e+02,4.095780300000000125e+02
3.310000000000000000e+02,4.132972399999999880e+02
3.320000000000000000e+02,4.169649999999999750e+02
3.330000000000000000e+02,4.205609099999999785e+02
3.340000000000000000e+02,4.240710100000000011e+02
3.350000000000000000e+02,4.274874599999999987e+02
3.360000000000000000e+02,4.308083500000000186e+02
3.370000000000000000e+02,4.340351299999999810e+02
3.380000000000000000e+02,4.371722399999999880e+02
3.390000000000000000e+02,4.402262600000000248e+02
3.400000000000000000e+02,4.432036400000000071e+02
3.410000000000000000e+02,4.461103499999999826e+02
3.420000000000000000e+02,4.489526399999999740e+02
3.430000000000000000e+02,4.517355299999999829e+02
3.440000000000000000e+02,4.544633799999999724e+02
3.450000000000000000e+02,4.571398300000000177e+02
3.460000000000000000e+02,4.597688899999999990e+02
3.470000000000000000e+02,4.623527799999999957e+02
3.480000000000000000e+02,4.648948399999999879e+02
3.490000000000000000e+02,4.673967599999999720e+02
3.500000000000000000e+02,4.698608399999999961e+02
3.510000000000000000e+02,4.722889700000000062e+02
3.520000000000000000e+02,4.746826199999999858e+02
3.530000000000000000e+02,4.770434000000000196e+02
3.540000000000000000e+02,4.793726199999999835e+02
3.550000000000000000e+02,4.816714200000000119e+02
3.560000000000000000e+02,4.839406700000000114e+02
3.570000000000000000e+02,4.861817899999999781e+02
3.580000000000000000e+02,4.883955700000000206e+02
3.590000000000000000e+02,4.905827600000000075e+02
3.600000000000000000e+02,4.927440799999999967e+02
3.610000000000000000e+02,4.948802800000000275e+02
3.620000000000000000e+02,4.969920299999999997e+02
3.630000000000000000e+02,4.990802299999999718e+02
3.640000000000000000e+02,5.011454200000000014e+02
3.650000000000000000e+02,5.031877700000000004e+02
3.660000000000000000e+02,5.052079800000000205e+02
3.670000000000000000e+02,5.072064799999999991e+02
3.680000000000000000e+02,5.091837199999999939e+02
3.690000000000000000e+02,5.111400499999999738e+02
3.700000000000000000e+02,5.130756800000000339e+02
3.710000000000000000e+02,5.149913900000000240e+02
3.720000000000000000e+02,5.168872699999999440e+02
3.730000000000000000e+02,5.187637300000000096e+02
3.740000000000000000e+02,5.206209099999999808e+02
3.750000000000000000e+02,5.224592900000000100e+02
3.760000000000000000e+02,5.242789299999999457e+02
3.770000000000000000e+02,5.260803799999999910e+02
3.780000000000000000e+02,5.278633399999999938e+02
3.790000000000000000e+02,5.296287200000000439e+02
3.800000000000000000e+02,5.313762199999999893e+02
3.810000000000000000e+02,5.331062600000000202e+02
3.820000000000000000e+02,5.348190299999999979e+02
3.830000000000000000e+02,5.365147100000000364e+02
3.840000000000000000e+02,5.381934800000000223e+02
3.850000000000000000e+02,5.398555300000000443e+02
3.860000000000000000e+02,5.415012199999999893e+02
3.870000000000000000e+02,5.431304300000000467e+02
3.880000000000000000e+02,5.447434700000000021e+02
3.890000000000000000e+02,5.463405199999999695e+02
3.900000000000000000e+02,5.479217499999999745e+02
3.910000000000000000e+02,5.494872400000000425e+02
3.920000000000000000e+02,5.510370500000000220e+02
3.930000000000000000e+02,5.525715900000000147e+02
3.940000000000000000e+02,5.540909400000000460e+02
3.950000000000000000e+02,5.555952800000000025e+02
3.960000000000000000e+02,5.570845299999999725e+02
3.970000000000000000e+02,5.585588400000000320e+02
3.980000000000000000e+02,5.600185500000000047e+02
3.990000000000000000e+02,5.614638099999999667e+02
4.000000000000000000e+02,5.628944699999999557e+02
4.010000000000000000e+02,5.643109699999999975e+02
4.020000000000000000e+02,5.657132599999999911e+02
4.030000000000000000e+02,5.671015599999999495e+02
4.040000000000000000e+02,5.684758900000000494e+02
4.050000000000000000e+02,5.698366700000000264e+02
4.060000000000000000e+02,5.711836499999999432e+02
4.070000000000000000e+02,5.725169700000000148e+02
4.080000000000000000e+02,5.738370999999999640e+02
4.090000000000000000e+02,5.751438600000000179e+02
4.100000000000000000e+02,5.764374400000000378e+02
4.110000000000000000e+02,5.777180200000000241e+02
4.120000000000000000e+02,5.789857200000000148e+02
4.130000000000000000e+02,5.802405999999999722e+02
4.140000000000000000e+02,5.814827900000000227e+02
4.150000000000000000e+02,5.827123400000000402e+02
4.160000000000000000e+02,5.839294999999999618e+02
4.170000000000000000e+02,5.851342799999999897e+02
4.180000000000000000e+02,5.863267799999999852e+02
4.190000000000000000e+02,5.875071400000000494e+02
4.200000000000000000e+02,5.886755399999999554e+02
4.210000000000000000e+02,5.898320899999999938e+02
4.220000000000000000e+02,5.909768699999999626e+02
4.230000000000000000e+02,5.921097999999999502e+02
4.240000000000000000e+02,5.932311999999999443e+02
4.250000000000000000e+02,5.943411300000000210e+02
4.260000000000000000e+02,5.954397599999999784e+02
4.270000000000000000e+02,5.965269799999999805e+02
4.280000000000000000e+02,5.976030299999999897e+02
4.290000000000000000e+02,5.986681499999999687e+02
4.300000000000000000e+02,5.997221700000000055e+02
4.310000000000000000e+02,6.007654400000000123e+02
4.320000000000000000e+02,6.017979100000000017e+02
4.330000000000000000e+02,6.028196400000000494e+02
4.340000000000000000e+02,6.038309299999999666e+02
4.350000000000000000e+02,6.048316700000000310e+02
4.360000000000000000e+02,6.058221399999999903e+02
4.370000000000000000e+02,6.068023100000000341e+02
4.380000000000000000e+02,6.077722800000000234e+02
4.390000000000000000e+02,6.087322400000000471e+02
4.400000000000000000e+02,6.096821899999999914e+02
4.410000000000000000e+02,6.106223099999999704e+02
4.420000000000000000e+02,6.115525499999999965e+02
4.430000000000000000e+02,6.124731399999999439e+02
4.440000000000000000e+02,6.133842200000000275e+02
4.450000000000000000e+02,6.142856399999999439e+02
4.460000000000000000e+02,6.151776700000000346e+02
4.470000000000000000e+02,6.160604200000000219e+02
4.480000000000000000e+02,6.169340200000000323e+02
4.490000000000000000e+02,6.177983400000000529e+02
4.500000000000000000e+02,6.186536300000000210e+02
4.510000000000000000e+02,6.194998799999999619e+02
4.520000000000000000e+02,6.203372200000000021e+02
4.530000000000000000e+02,6.211657699999999522e+02
4.540000000000000000e+02,6.219855999999999767e+02
4.550000000000000000e+02,6.227968100000000504e+02
4.560000000000000000e+02,6.235994299999999839e+02
4.570000000000000000e+02,6.243936200000000554e+02
4.580000000000000000e+02,6.251794399999999996e+02
4.590000000000000000e+02,6.259569699999999557e+02
4.600000000000000000e+02,6.267262600000000248e+02
4.610000000000000000e+02,6.274873700000000554e+02
4.620000000000000000e+02,6.282404199999999719e+02
4.630000000000000000e+02,6.289855300000000398e+02
4.640000000000000000e+02,6.297227199999999812e+02
4.650000000000000000e+02,6.304520899999999983e+02
4.660000000000000000e+02,6.311736499999999523e+02
4.670000000000000000e+02,6.318876299999999446e+02
4.680000000000000000e+02,6.325939300000000003e+02
4.690000000000000000e+02,6.332927200000000312e+02
4.700000000000000000e+02,6.339841300000000501e+02
4.710000000000000000e+02,6.346681499999999687e+02
4.720000000000000000e+02,6.353448499999999513e+02
4.730000000000000000e+02,6.360142799999999852e+02
4.740000000000000000e+02,6.366766400000000203e+02
4.750000000000000000e+02,6.373318500000000313e+02
4.760000000000000000e+02,6.379800400000000309e+02
4.770000000000000000e+02,6.386213999999999942e+02
4.780000000000000000e+02,6.392558000000000220e+02
4.790000000000000000e+02,6.398833600000000388e+02
4.800000000000000000e+02,6.405042700000000195e+02
4.810000000000000000e+02,6.411184700000000021e+02
4.820000000000000000e+02,6.417260700000000497e+02
4.830000000000000000e+02,6.423271499999999605e+02
4.840000000000000000e+02,6.429218100000000504e+02
4.850000000000000000e+02,6.435100700000000415e+02
4.860000000000000000e+02,6.440919800000000350e+02
4.870000000000000000e+02,6.446675999999999931e+02
4.880000000000000000e+02,6.452370600000000422e+02
4.890000000000000000e+02,6.458002900000000182e+02
4.900000000000000000e+02,6.463574800000000096e+02
4.910000000000000000e+02,6.469086899999999787e+02
4.920000000000000000e+02,6.474539200000000392e+02
4.930000000000000000e+02,6.479932300000000396e+02
4.940000000000000000e+02,6.485266699999999673e+02
4.950000000000000000e+02,6.490544399999999996e+02
4.960000000000000000e+02,6.495764199999999846e+02
4.970000000000000000e+02,6.500927100000000110e+02
4.980000000000000000e+02,6.506035200000000032e+02
4.990000000000000000e+02,6.511086999999999989e+02
5.000000000000000000e+02,6.516084600000000364e+02
5.010000000000000000e+02,6.521027800000000525e+02
5.020000000000000000e+02,6.525916700000000219e+02
5.030000000000000000e+02,6.530753200000000334e+02
5.040000000000000000e+02,6.535536499999999478e+02
5.050000000000000000e+02,6.540267900000000054e+02
5.060000000000000000e+02,6.544948100000000295e+02
5.070000000000000000e+02,6.549577000000000453e+02
5.080000000000000000e+02,6.554155899999999519e+02
5.090000000000000000e+02,6.558684100000000399e+02
5.100000000000000000e+02,6.563163500000000568e+02
5.110000000000000000e+02,6.567594000000000278e+02
5.120000000000000000e+02,6.571975700000000415e+02
5.130000000000000000e+02,6.576310399999999845e+02
5.140000000000000000e+02,6.580596900000000460e+02
5.150000000000000000e+02,6.584836999999999989e+02
5.160000000000000000e+02,6.589030199999999695e+02
5.170000000000000000e+02,6.593178100000000086e+02
5.180000000000000000e+02,6.597280299999999897e+02
5.190000000000000000e+02,6.601337899999999763e+02
5.200000000000000000e+02,6.605351000000000568e+02
5.210000000000000000e+02,6.609320099999999911e+02
5.220000000000000000e+02,6.613245200000000068e+02
5.230000000000000000e+02,6.617127699999999777e+02
5.240000000000000000e+02,6.620967399999999543e+02
5.250000000000000000e+02,6.624764999999999873e+02
5.260000000000000000e+02,6.628520499999999629e+02
5.270000000000000000e+02,6.632235699999999952e+02
5.280000000000000000e+02,6.635909400000000460e+02
5.290000000000000000e+02,6.639543499999999767e+02
5.300000000000000000e+02,6.643136600000000271e+02
5.310000000000000000e+02,6.646690700000000334e+02
5.320000000000000000e+02,6.650205700000000206e+02
5.330000000000000000e+02,6.653681599999999889e+02
5.340000000000000000e+02,6.657119099999999889e+02
5.350000000000000000e+02,6.660519399999999450e+02
5.360000000000000000e+02,6.663882399999999961e+02
5.370000000000000000e+02,6.667207600000000411e+02
5.380000000000000000e+02,6.670496200000000044e+02
5.390000000000000000e+02,6.673748799999999619e+02
5.400000000000000000e+02,6.676965300000000525e+02
5.410000000000000000e+02,6.680147100000000364e+02
5.420000000000000000e+02,6.683292800000000398e+02
5.430000000000000000e+02,6.686403800000000501e+02
5.440000000000000000e+02,6.689480600000000550e+02
5.450000000000000000e+02,6.692523800000000165e+02
5.460000000000000000e+02,6.695532799999999725e+02
5.470000000000000000e+02,6.698508900000000494e+02
5.480000000000000000e+02,6.701451399999999694e+02
5.490000000000000000e+02,6.704362200000000485e+02
5.500000000000000000e+02,6.707240600000000086e+02
5.510000000000000000e+02,6.710086700000000519e+02
5.520000000000000000e+02,6.712901000000000522e+02
5.530000000000000000e+02,6.715684800000000223e+02
5.540000000000000000e+02,6.718437500000000000e+02
5.550000000000000000e+02,6.721159699999999475e+02
5.560000000000000000e+02,6.723851899999999659e+02
5.570000000000000000e+02,6.726513700000000426e+02
5.580000000000000000e+02,6.729146700000000010e+02
5.590000000000000000e+02,6.731749899999999798e+02
5.600000000000000000e+02,6.734324299999999539e+02
5.610000000000000000e+02,6.736870099999999866e+02
5.620000000000000000e+02,6.739387799999999515e+02
5.630000000000000000e+02,6.741877399999999625e+02
5.640000000000000000e+02,6.744339599999999564e+02
5.650000000000000000e+02,6.746774299999999585e+02
5.660000000000000000e+02,6.749181499999999687e+02
5.670000000000000000e+02,6.751562500000000000e+02
5.680000000000000000e+02,6.753916600000000017e+02
5.690000000000000000e+02,6.756244500000000244e+02
5.700000000000000000e+02,6.758546800000000303e+02
5.710000000000000000e+02,6.760823400000000447e+02
5.720000000000000000e+02,6.763074299999999539e+02
5.730000000000000000e+02,6.765300899999999729e+02
5.740000000000000000e+02,6.767501800000000003e+02
5.750000000000000000e+02,6.769678999999999860e+02
5.760000000000000000e+02,6.771831100000000561e+02
5.770000000000000000e+02,6.773959399999999960e+02
5.780000000000000000e+02,6.776064499999999953e+02
5.790000000000000000e+02,6.778145799999999781e+02
5.800000000000000000e+02,6.780203900000000203e+02
5.810000000000000000e+02,6.782238800000000083e+02
5.820000000000000000e+02,6.784251699999999801e+02
5.830000000000000000e+02,6.786241499999999860e+02
5.840000000000000000e+02,6.788209200000000010e+02
5.850000000000000000e+02,6.790154999999999745e+02
5.860000000000000000e+02,6.792078900000000203e+02
5.870000000000000000e+02,6.793981300000000374e+02
5.880000000000000000e+02,6.795862399999999752e+02
5.890000000000000000e+02,6.797722800000000234e+02
5.900000000000000000e+02,6.799561800000000176e+02
5.910000000000000000e+02,6.801380599999999959e+02
5.920000000000000000e+02,6.803179300000000467e+02
5.930000000000000000e+02,6.804957900000000564e+02
5.940000000000000000e+02,6.806716300000000501e+02
5.950000000000000000e+02,6.808455199999999650e+02
5.960000000000000000e+02,6.810174600000000282e+02
5.970000000000000000e+02,6.811874400000000378e+02
5.980000000000000000e+02,6.813555300000000443e+02
5.990000000000000000e+02,6.815217900000000100e+02