# Time [s], Temperature [C]
1.000000000000000000e+00,2.500000000000000000e+01
2.000000000000000000e+00,2.500000000000000000e+01
3.000000000000000000e+00,2.500000000000000000e+01
4.000000000000000000e+00,2.500000000000000000e+01
5.000000000000000000e+00,2.500000199999999850e+01
6.000000000000000000e+00,2.500001500000000121e+01
7.000000000000000000e+00,2.500006700000000137e+01
8.000000000000000000e+00,2.500023699999999849e+01
9.000000000000000000e+00,2.500071099999999902e+01
1.000000000000000000e+01,2.500187299999999979e+01
1.100000000000000000e+01,2.500438499999999920e+01
1.200000000000000000e+01,2.500928700000000049e+01
1.300000000000000000e+01,2.501805900000000094e+01
1.400000000000000000e+01,2.503262900000000002e+01
1.500000000000000000e+01,2.505535700000000077e+01
1.600000000000000000e+01,2.508895700000000062e+01
1.700000000000000000e+01,2.513641900000000007e+01
1.800000000000000000e+01,2.520091100000000139e+01
1.900000000000000000e+01,2.528566599999999909e+01
2.000000000000000000e+01,2.539389399999999952e+01
2.100000000000000000e+01,2.552870199999999912e+01
2.200000000000000000e+01,2.569299900000000036e+01
2.300000000000000000e+01,2.588945999999999970e+01
2.400000000000000000e+01,2.612044699999999864e+01
2.500000000000000000e+01,2.638801000000000130e+01
2.600000000000000000e+01,2.669384799999999913e+01
2.700000000000000000e+01,2.703930099999999825e+01
2.800000000000000000e+01,2.742537099999999839e+01
2.900000000000000000e+01,2.785277599999999865e+01
3.000000000000000000e+01,2.832189599999999885e+01
3.100000000000000000e+01,2.883286899999999875e+01
3.200000000000000000e+01,2.938561800000000090e+01
3.300000000000000000e+01,2.997989499999999907e+01
3.400000000000000000e+01,3.062803800000000010e+01
3.500000000000000000e+01,3.131051100000000176e+01
3.600000000000000000e+01,3.203151700000000091e+01
3.700000000000000000e+01,3.279136299999999693e+01
3.800000000000000000e+01,3.358939399999999864e+01
3.900000000000000000e+01,3.442488099999999918e+01
4.000000000000000000e+01,3.529701599999999928e+01
4.100000000000000000e+01,3.620499800000000334e+01
4.200000000000000000e+01,3.714802600000000155e+01
4.300000000000000000e+01,3.812523300000000148e+01
4.400000000000000000e+01,3.913584900000000033e+01
4.500000000000000000e+01,4.017903100000000194e+01
4.600000000000000000e+01,4.125399399999999872e+01
4.700000000000000000e+01,4.235997400000000113e+01
4.800000000000000000e+01,4.349622000000000099e+01
4.900000000000000000e+01,4.466198700000000343e+01
5.000000000000000000e+01,4.585654399999999953e+01
5.100000000000000000e+01,4.707921600000000240e+01
5.200000000000000000e+01,4.832930400000000049e+01
5.300000000000000000e+01,4.960612900000000280e+01
5.400000000000000000e+01,5.090905399999999759e+01
5.500000000000000000e+01,5.223746500000000026e+01
5.600000000000000000e+01,5.359067900000000151e+01
5.700000000000000000e+01,5.496871900000000011e+01
5.800000000000000000e+01,5.637003299999999939e+01
5.900000000000000000e+01,5.779426200000000335e+01
6.000000000000000000e+01,5.924094000000000193e+01
6.100000000000000000e+01,6.070955699999999666e+01
6.200000000000000000e+01,6.219955399999999912e+01
6.300000000000000000e+01,6.371051800000000043e+01
6.400000000000000000e+01,6.524199699999999780e+01
6.500000000000000000e+01,6.679353299999999649e+01
6.600000000000000000e+01,6.836466199999999560e+01
6.700000000000000000e+01,6.995489499999999339e+01
6.800000000000000000e+01,7.156372100000000103e+01
6.900000000000000000e+01,7.319062800000000379e+01
7.000000000000000000e+01,7.483504499999999382e+01
7.100000000000000000e+01,7.649644499999999425e+01
7.200000000000000000e+01,7.817430899999999383e+01
7.300000000000000000e+01,7.986811099999999897e+01
7.400000000000000000e+01,8.157722499999999854e+01
7.500000000000000000e+01,8.330116300000000251e+01
7.600000000000000000e+01,8.503942899999999838e+01
7.700000000000000000e+01,8.679152700000000209e+01
7.800000000000000000e+01,8.855690800000000706e+01
7.900000000000000000e+01,9.033513600000000565e+01
8.000000000000000000e+01,9.212564100000000167e+01
8.100000000000000000e+01,9.392798600000000420e+01
8.200000000000000000e+01,9.574160799999999938e+01
8.300000000000000000e+01,9.756607099999999377e+01
8.400000000000000000e+01,9.940089399999999387e+01
8.500000000000000000e+01,1.012457699999999932e+02
8.600000000000000000e+01,1.031004400000000061e+02
8.700000000000000000e+01,1.049645500000000027e+02
8.800000000000000000e+01,1.068378699999999952e+02
8.900000000000000000e+01,1.087199200000000019e+02
9.000000000000000000e+01,1.106100299999999947e+02
9.100000000000000000e+01,1.125075400000000059e+02
9.200000000000000000e+01,1.144117399999999947e+02
9.300000000000000000e+01,1.163219500000000011e+02
9.400000000000000000e+01,1.182374099999999970e+02
9.500000000000000000e+01,1.201574999999999989e+02
9.600000000000000000e+01,1.220814699999999959e+02
9.700000000000000000e+01,1.240086399999999998e+02
9.800000000000000000e+01,1.259383499999999998e+02
9.900000000000000000e+01,1.278698899999999981e+02
1.000000000000000000e+02,1.298024900000000059e+02
1.010000000000000000e+02,1.317354599999999891e+02
1.020000000000000000e+02,1.336680100000000095e+02
1.030000000000000000e+02,1.355993699999999933e+02
1.040000000000000000e+02,1.375287199999999928e+02
1.050000000000000000e+02,1.394551800000000128e+02
1.060000000000000000e+02,1.413779800000000080e+02
1.070000000000000000e+02,1.432960999999999956e+02
1.080000000000000000e+02,1.452087400000000059e+02
1.090000000000000000e+02,1.471149900000000059e+02
1.100000000000000000e+02,1.490144300000000044e+02
1.110000000000000000e+02,1.509068599999999947e+02
1.120000000000000000e+02,1.527915000000000134e+02
1.130000000000000000e+02,1.546668400000000076e+02
1.140000000000000000e+02,1.565306099999999958e+02
1.150000000000000000e+02,1.583805999999999869e+02
1.160000000000000000e+02,1.602146600000000092e+02
1.170000000000000000e+02,1.620308400000000120e+02
1.180000000000000000e+02,1.638271300000000110e+02
1.190000000000000000e+02,1.656015500000000031e+02
1.200000000000000000e+02,1.673520699999999977e+02
1.210000000000000000e+02,1.690766399999999976e+02
1.220000000000000000e+02,1.707731200000000058e+02
1.230000000000000000e+02,1.724393300000000124e+02
1.240000000000000000e+02,1.740730900000000076e+02
1.250000000000000000e+02,1.756722399999999880e+02
1.260000000000000000e+02,1.772345699999999908e+02
1.270000000000000000e+02,1.787580299999999909e+02
1.280000000000000000e+02,1.802406300000000101e+02
1.290000000000000000e+02,1.816805600000000140e+02
1.300000000000000000e+02,1.830760799999999904e+02
1.310000000000000000e+02,1.844258600000000001e+02
1.320000000000000000e+02,1.857405500000000131e+02
1.330000000000000000e+02,1.870066700000000139e+02
1.340000000000000000e+02,1.882286400000000128e+02
1.350000000000000000e+02,1.894056099999999958e+02
1.360000000000000000e+02,1.905343799999999987e+02
1.370000000000000000e+02,1.916130499999999870e+02
1.380000000000000000e+02,1.926422100000000057e+02
1.390000000000000000e+02,1.936238700000000108e+02
1.400000000000000000e+02,1.945607300000000066e+02
1.410000000000000000e+02,1.954555499999999881e+02
1.420000000000000000e+02,1.963112800000000107e+02
1.430000000000000000e+02,1.971310000000000002e+02
1.440000000000000000e+02,1.979178499999999872e+02
1.450000000000000000e+02,1.986751099999999894e+02
1.460000000000000000e+02,1.994060800000000029e+02
1.470000000000000000e+02,2.001139799999999980e+02
1.480000000000000000e+02,2.008020500000000084e+02
1.490000000000000000e+02,2.014734500000000139e+02
1.500000000000000000e+02,2.021310699999999940e+02
1.510000000000000000e+02,2.027778000000000134e+02
1.520000000000000000e+02,2.034163399999999911e+02
1.530000000000000000e+02,2.040492099999999880e+02
1.540000000000000000e+02,2.046787300000000016e+02
1.550000000000000000e+02,2.053886300000000062e+02
1.560000000000000000e+02,2.060727500000000134e+02
1.570000000000000000e+02,2.067427999999999884e+02
1.580000000000000000e+02,2.073989300000000071e+02
1.590000000000000000e+02,2.080463699999999960e+02
1.600000000000000000e+02,2.086940899999999885e+02
1.610000000000000000e+02,2.093478499999999940e+02
1.620000000000000000e+02,2.100106399999999951e+02
1.630000000000000000e+02,2.106843399999999917e+02
1.640000000000000000e+02,2.113701900000000080e+02
1.650000000000000000e+02,2.120691400000000044e+02
1.660000000000000000e+02,2.127821199999999919e+02
1.670000000000000000e+02,2.135098600000000033e+02
1.680000000000000000e+02,2.142533400000000086e+02
1.690000000000000000e+02,2.150135300000000029e+02
1.700000000000000000e+02,2.157914000000000101e+02
1.710000000000000000e+02,2.165878800000000126e+02
1.720000000000000000e+02,2.174039600000000121e+02
1.730000000000000000e+02,2.182410299999999950e+02
1.740000000000000000e+02,2.190999099999999942e+02
1.750000000000000000e+02,2.199819799999999930e+02
1.760000000000000000e+02,2.208889299999999878e+02
1.770000000000000000e+02,2.218220200000000091e+02
1.780000000000000000e+02,2.231755699999999933e+02
1.790000000000000000e+02,2.242636300000000062e+02
1.800000000000000000e+02,2.252723699999999951e+02
1.810000000000000000e+02,2.262961599999999862e+02
1.820000000000000000e+02,2.273630400000000122e+02
1.830000000000000000e+02,2.284788800000000037e+02
1.840000000000000000e+02,2.296417500000000018e+02
1.850000000000000000e+02,2.308521900000000073e+02
1.860000000000000000e+02,2.321115700000000004e+02
1.870000000000000000e+02,2.334217999999999904e+02
1.880000000000000000e+02,2.347864999999999895e+02
1.890000000000000000e+02,2.362085399999999993e+02
1.900000000000000000e+02,2.376928399999999897e+02
1.910000000000000000e+02,2.392425100000000100e+02
1.920000000000000000e+02,2.408641100000000108e+02
1.930000000000000000e+02,2.425640300000000025e+02
1.940000000000000000e+02,2.443476400000000126e+02
1.950000000000000000e+02,2.462209900000000005e+02
1.960000000000000000e+02,2.481936599999999942e+02
1.970000000000000000e+02,2.502708100000000115e+02
1.980000000000000000e+02,2.524633599999999944e+02
1.990000000000000000e+02,2.547807200000000023e+02
2.000000000000000000e+02,2.572332200000000171e+02
2.010000000000000000e+02,2.598326099999999883e+02
2.020000000000000000e+02,2.625873700000000213e+02
2.030000000000000000e+02,2.655098600000000033e+02
2.040000000000000000e+02,2.686135600000000068e+02
2.050000000000000000e+02,2.719078099999999836e+02
2.060000000000000000e+02,2.754021900000000187e+02
2.070000000000000000e+02,2.803016999999999825e+02
2.080000000000000000e+02,2.843874500000000012e+02
2.090000000000000000e+02,2.884177900000000250e+02
2.100000000000000000e+02,2.926994300000000067e+02
2.110000000000000000e+02,2.971784999999999854e+02
2.120000000000000000e+02,3.018487200000000144e+02
2.130000000000000000e+02,3.066886900000000082e+02
2.140000000000000000e+02,3.116767899999999827e+02
2.150000000000000000e+02,3.167844499999999925e+02
2.160000000000000000e+02,3.219845300000000066e+02
2.170000000000000000e+02,3.272438700000000154e+02
2.180000000000000000e+02,3.325344499999999925e+02
2.190000000000000000e+02,3.378285799999999881e+02
2.200000000000000000e+02,3.431031800000000089e+02
2.210000000000000000e+02,3.483384399999999914e+02
2.220000000000000000e+02,3.535177600000000098e+02
2.230000000000000000e+02,3.586300400000000081e+02
2.240000000000000000e+02,3.636666000000000167e+02
2.250000000000000000e+02,3.686216999999999757e+02
2.260000000000000000e+02,3.734932900000000018e+02
2.270000000000000000e+02,3.782780799999999886e+02
2.280000000000000000e+02,3.829780900000000088e+02
2.290000000000000000e+02,3.875929300000000239e+02
2.300000000000000000e+02,3.921251800000000003e+02
2.310000000000000000e+02,3.965769000000000233e+02
2.320000000000000000e+02,4.009505599999999959e+02
2.330000000000000000e+02,4.052484699999999975e+02
2.340000000000000000e+02,4.094746400000000222e+02
2.350000000000000000e+02,4.136310700000000224e+02
2.360000000000000000e+02,4.177203400000000215e+02
2.370000000000000000e+02,4.217456999999999994e+02
2.380000000000000000e+02,4.257099000000000046e+02
2.390000000000000000e+02,4.296151699999999778e+02
2.400000000000000000e+02,4.334638100000000236e+02
2.410000000000000000e+02,4.372590000000000146e+02
2.420000000000000000e+02,4.410017100000000028e+02
2.430000000000000000e+02,4.446943099999999731e+02
2.440000000000000000e+02,4.483385000000000105e+02
2.450000000000000000e+02,4.519369500000000244e+02
2.460000000000000000e+02,4.554909400000000232e+02
2.470000000000000000e+02,4.590020400000000222e+02
2.480000000000000000e+02,4.624714999999999918e+02
2.490000000000000000e+02,4.659012500000000045e+02
2.500000000000000000e+02,4.692925099999999929e+02
2.510000000000000000e+02,4.726465499999999906e+02
2.520000000000000000e+02,4.759643199999999865e+02
2.530000000000000000e+02,4.792467300000000137e+02
2.540000000000000000e+02,4.824951199999999858e+02
2.550000000000000000e+02,4.857104199999999992e+02
2.560000000000000000e+02,4.888933700000000044e+02
2.570000000000000000e+02,4.920449800000000096e+02
2.580000000000000000e+02,4.951663199999999847e+02
2.590000000000000000e+02,4.982577499999999873e+02
2.600000000000000000e+02,5.013197000000000116e+02
2.610000000000000000e+02,5.043535800000000222e+02
2.620000000000000000e+02,5.073593799999999874e+02
2.630000000000000000e+02,5.103381699999999910e+02
2.640000000000000000e+02,5.132901600000000144e+02
2.650000000000000000e+02,5.162158799999999701e+02
2.660000000000000000e+02,5.191157799999999725e+02
2.670000000000000000e+02,5.219901700000000346e+02
2.680000000000000000e+02,5.248396599999999808e+02
2.690000000000000000e+02,5.276647299999999632e+02
2.700000000000000000e+02,5.304656999999999698e+02
2.710000000000000000e+02,5.332429799999999886e+02
2.720000000000000000e+02,5.359968300000000454e+02
2.730000000000000000e+02,5.387276000000000522e+02
2.740000000000000000e+02,5.414357899999999972e+02
2.750000000000000000e+02,5.441210899999999810e+02
2.760000000000000000e+02,5.467844199999999546e+02
2.770000000000000000e+02,5.494260299999999688e+02
2.780000000000000000e+02,5.520455299999999852e+02
2.790000000000000000e+02,5.546438600000000179e+02
2.800000000000000000e+02,5.572207600000000411e+02
2.810000000000000000e+02,5.597764899999999670e+02
2.820000000000000000e+02,5.623118899999999485e+02
2.830000000000000000e+02,5.648264199999999846e+02
2.840000000000000000e+02,5.673203099999999495e+02
2.850000000000000000e+02,5.697940099999999575e+02
2.860000000000000000e+02,5.722479899999999589e+02
2.870000000000000000e+02,5.746820099999999911e+02
2.880000000000000000e+02,5.770961300000000165e+02
2.890000000000000000e+02,5.794907799999999725e+02
2.900000000000000000e+02,5.818660300000000234e+02
2.910000000000000000e+02,5.842219199999999546e+02
2.920000000000000000e+02,5.865588400000000320e+02
2.930000000000000000e+02,5.888767100000000028e+02
2.940000000000000000e+02,5.911761500000000069e+02
2.950000000000000000e+02,5.934567899999999554e+02
2.960000000000000000e+02,5.957186900000000378e+02
2.970000000000000000e+02,5.979624000000000024e+02
2.980000000000000000e+02,6.001876800000000003e+02
2.990000000000000000e+02,6.023949599999999691e+02
3.000000000000000000e+02,6.045842300000000478e+02
3.010000000000000000e+02,6.067558000000000220e+02
3.020000000000000000e+02,6.089093599999999924e+02
3.030000000000000000e+02,6.110452900000000227e+02
3.040000000000000000e+02,6.131638799999999492e+02
3.050000000000000000e+02,6.152651399999999740e+02
3.060000000000000000e+02,6.173491199999999708e+02
3.070000000000000000e+02,6.194158899999999903e+02
3.080000000000000000e+02,6.214658799999999701e+02
3.090000000000000000e+02,6.234986599999999726e+02
3.100000000000000000e+02,6.255147100000000364e+02
3.110000000000000000e+02,6.275141599999999471e+02
3.120000000000000000e+02,6.294970100000000457e+02
3.130000000000000000e+02,6.314634399999999914e+02
3.140000000000000000e+02,6.334131499999999733e+02
3.150000000000000000e+02,6.353467399999999543e+02
3.160000000000000000e+02,6.372644000000000233e+02
3.170000000000000000e+02,6.391660799999999654e+02
3.180000000000000000e+02,6.410518200000000206e+02
3.190000000000000000e+02,6.429215699999999742e+02
3.200000000000000000e+02,6.447757599999999911e+02
3.210000000000000000e+02,6.466141999999999825e+02
3.220000000000000000e+02,6.484372600000000375e+02
3.230000000000000000e+02,6.502450000000000045e+02
3.240000000000000000e+02,6.520372899999999845e+02
3.250000000000000000e+02,6.538143900000000031e+02
3.260000000000000000e+02,6.555767200000000230e+02
3.270000000000000000e+02,6.573236699999999928e+02
3.280000000000000000e+02,6.590560299999999643e+02
3.290000000000000000e+02,6.607736200000000508e+02
3.300000000000000000e+02,6.624763799999999492e+02
3.310000000000000000e+02,6.641646100000000388e+02
3.320000000000000000e+02,6.658384999999999536e+02
3.330000000000000000e+02,6.674979899999999589e+02
3.340000000000000000e+02,6.691431300000000419e+02
3.350000000000000000e+02,6.707741099999999506e+02
3.360000000000000000e+02,6.723910499999999502e+02
3.370000000000000000e+02,6.739939600000000155e+02
3.380000000000000000e+02,6.755830700000000206e+02
3.390000000000000000e+02,6.771584500000000162e+02
3.400000000000000000e+02,6.787202099999999518e+02
3.410000000000000000e+02,6.802684299999999666e+02
3.420000000000000000e+02,6.818031600000000481e+02
3.430000000000000000e+02,6.833242800000000443e+02
3.440000000000000000e+02,6.848322100000000319e+02
3.450000000000000000e+02,6.863270899999999983e+02
3.460000000000000000e+02,6.878088400000000320e+02
3.470000000000000000e+02,6.892774699999999939e+02
3.480000000000000000e+02,6.907333999999999605e+02
3.490000000000000000e+02,6.921765699999999697e+02
3.500000000000000000e+02,6.936068099999999959e+02
3.510000000000000000e+02,6.950245999999999640e+02
3.520000000000000000e+02,6.964298099999999749e+02
3.530000000000000000e+02,6.978226300000000037e+02
3.540000000000000000e+02,6.992029999999999745e+02
3.550000000000000000e+02,7.005711700000000519e+02
3.560000000000000000e+02,7.019271899999999960e+02
3.570000000000000000e+02,7.032710600000000341e+02
3.580000000000000000e+02,7.046032099999999900e+02
3.590000000000000000e+02,7.059234599999999773e+02
3.600000000000000000e+02,7.072316899999999578e+02
3.610000000000000000e+02,7.085283200000000079e+02
3.620000000000000000e+02,7.098134800000000268e+02
3.630000000000000000e+02,7.110870999999999640e+02
3.640000000000000000e+02,7.123491800000000467e+02
3.650000000000000000e+02,7.135999799999999595e+02
3.660000000000000000e+02,7.148394799999999805e+02
3.670000000000000000e+02,7.160678100000000086e+02
3.680000000000000000e+02,7.172851000000000568e+02
3.690000000000000000e+02,7.184913900000000240e+02
3.700000000000000000e+02,7.196868299999999863e+02
3.710000000000000000e+02,7.208714599999999564e+02
3.720000000000000000e+02,7.220454099999999471e+02
3.730000000000000000e+02,7.232086799999999585e+02
3.740000000000000000e+02,7.243612699999999904e+02
3.750000000000000000e+02,7.255033600000000433e+02
3.760000000000000000e+02,7.266351300000000037e+02
3.770000000000000000e+02,7.277565899999999601e+02
3.780000000000000000e+02,7.288677400000000262e+02
3.790000000000000000e+02,7.299687500000000000e+02
3.800000000000000000e+02,7.310596900000000460e+02
3.810000000000000000e+02,7.321407500000000255e+02
3.820000000000000000e+02,7.332117299999999886e+02
3.830000000000000000e+02,7.342730099999999993e+02
3.840000000000000000e+02,7.353245200000000068e+02
3.850000000000000000e+02,7.363662699999999859e+02
3.860000000000000000e+02,7.373985000000000127e+02
3.870000000000000000e+02,7.384211400000000367e+02
3.880000000000000000e+02,7.394344499999999698e+02
3.890000000000000000e+02,7.404382900000000518e+02
3.900000000000000000e+02,7.414329199999999673e+02
3.910000000000000000e+02,7.424183299999999690e+02
3.920000000000000000e+02,7.433945300000000316e+02
3.930000000000000000e+02,7.443617600000000039e+02
3.940000000000000000e+02,7.453200100000000248e+02
3.950000000000000000e+02,7.462692899999999554e+02
3.960000000000000000e+02,7.472098399999999856e+02
3.970000000000000000e+02,7.481415399999999636e+02
3.980000000000000000e+02,7.490645799999999781e+02
3.990000000000000000e+02,7.499790000000000418e+02
4.000000000000000000e+02,7.508850099999999657e+02
4.010000000000000000e+02,7.517823499999999513e+02
4.020000000000000000e+02,7.526713300000000118e+02
4.030000000000000000e+02,7.535521199999999453e+02
4.040000000000000000e+02,7.544246799999999666e+02
4.050000000000000000e+02,7.552890599999999495e+02
4.060000000000000000e+02,7.561452000000000453e+02
4.070000000000000000e+02,7.569933499999999640e+02
4.080000000000000000e+02,7.578334999999999582e+02
4.090000000000000000e+02,7.586657699999999522e+02
4.100000000000000000e+02,7.594901700000000346e+02
4.110000000000000000e+02,7.603067600000000539e+02
4.120000000000000000e+02,7.611156600000000481e+02
4.130000000000000000e+02,7.619169900000000553e+02
4.140000000000000000e+02,7.627106899999999996e+02
4.150000000000000000e+02,7.634969499999999698e+02
4.160000000000000000e+02,7.642757599999999911e+02
4.170000000000000000e+02,7.650471199999999499e+02
4.180000000000000000e+02,7.658112200000000485e+02
4.190000000000000000e+02,7.665680499999999711e+02
4.200000000000000000e+02,7.673176899999999705e+02
4.210000000000000000e+02,7.680601799999999457e+02
4.220000000000000000e+02,7.687955899999999474e+02
4.230000000000000000e+02,7.695240499999999884e+02
4.240000000000000000e+02,7.702456100000000561e+02
4.250000000000000000e+02,7.709602700000000368e+02
4.260000000000000000e+02,7.716680300000000443e+02
4.270000000000000000e+02,7.723690800000000536e+02
4.280000000000000000e+02,7.730634800000000268e+02
4.290000000000000000e+02,7.737512199999999893e+02
4.300000000000000000e+02,7.744323699999999917e+02
4.310000000000000000e+02,7.751069899999999961e+02
4.320000000000000000e+02,7.757751500000000533e+02
4.330000000000000000e+02,7.764369500000000244e+02
4.340000000000000000e+02,7.770923500000000104e+02
4.350000000000000000e+02,7.777414599999999609e+02
4.360000000000000000e+02,7.783842799999999897e+02
4.370000000000000000e+02,7.790209999999999582e+02
4.380000000000000000e+02,7.796516100000000051e+02
4.390000000000000000e+02,7.802760600000000295e+02
4.400000000000000000e+02,7.808945899999999938e+02
4.410000000000000000e+02,7.815071400000000494e+02
4.420000000000000000e+02,7.821137700000000450e+02
4.430000000000000000e+02,7.827145400000000564e+02
4.440000000000000000e+02,7.833095100000000457e+02
4.450000000000000000e+02,7.838987399999999752e+02
4.460000000000000000e+02,7.844823000000000093e+02
4.470000000000000000e+02,7.850601799999999457e+02
4.480000000000000000e+02,7.856325100000000248e+02
4.490000000000000000e+02,7.861992800000000443e+02
4.500000000000000000e+02,7.867604999999999791e+02
4.510000000000000000e+02,7.873163500000000568e+02
4.520000000000000000e+02,7.878667599999999993e+02
4.530000000000000000e+02,7.884118700000000217e+02
4.540000000000000000e+02,7.889516599999999471e+02
4.550000000000000000e+02,7.894861499999999523e+02
4.560000000000000000e+02,7.900155600000000504e+02
4.570000000000000000e+02,7.905397299999999632e+02
4.580000000000000000e+02,7.910588400000000320e+02
4.590000000000000000e+02,7.915728800000000547e+02
4.600000000000000000e+02,7.920819099999999935e+02
4.610000000000000000e+02,7.925860000000000127e+02
4.620000000000000000e+02,7.930851400000000240e+02
4.630000000000000000e+02,7.935794100000000526e+02
4.640000000000000000e+02,7.940689099999999598e+02
4.650000000000000000e+02,7.945535300000000234e+02
4.660000000000000000e+02,7.950334500000000162e+02
4.670000000000000000e+02,7.955087300000000141e+02
4.680000000000000000e+02,7.959793100000000550e+02
4.690000000000000000e+02,7.964453099999999495e+02
4.700000000000000000e+02,7.969067400000000134e+02
4.710000000000000000e+02,7.973636500000000069e+02
4.720000000000000000e+02,7.978160400000000436e+02
4.730000000000000000e+02,7.982640400000000227e+02
4.740000000000000000e+02,7.987075800000000072e+02
4.750000000000000000e+02,7.991468499999999722e+02
4.760000000000000000e+02,7.995817899999999554e+02
4.770000000000000000e+02,8.000124499999999443e+02
4.780000000000000000e+02,8.004388999999999896e+02
4.790000000000000000e+02,8.008610800000000154e+02
4.800000000000000000e+02,8.012791700000000219e+02
4.810000000000000000e+02,8.016931799999999839e+02
4.820000000000000000e+02,8.021030299999999897e+02
4.830000000000000000e+02,8.025089100000000144e+02
4.840000000000000000e+02,8.029107699999999568e+02
4.850000000000000000e+02,8.033086499999999432e+02
4.860000000000000000e+02,8.037026399999999740e+02
4.870000000000000000e+02,8.040927100000000110e+02
4.880000000000000000e+02,8.044789399999999659e+02
4.890000000000000000e+02,8.048613299999999526e+02
4.900000000000000000e+02,8.052399900000000343e+02
4.910000000000000000e+02,8.056148699999999963e+02
4.920000000000000000e+02,8.059860800000000154e+02
4.930000000000000000e+02,8.063535799999999654e+02
4.940000000000000000e+02,8.067174700000000485e+02
4.950000000000000000e+02,8.070777600000000120e+02
4.960000000000000000e+02,8.074345100000000457e+02
4.970000000000000000e+02,8.077876599999999598e+02
4.980000000000000000e+02,8.081373300000000199e+02
4.990000000000000000e+02,8.084835799999999608e+02
5.000000000000000000e+02,8.088263500000000477e+02
5.010000000000000000e+02,8.091657699999999522e+02
5.020000000000000000e+02,8.095017699999999650e+02
5.030000000000000000e+02,8.098344700000000103e+02
5.040000000000000000e+02,8.101638199999999870e+02
5.050000000000000000e+02,8.104899299999999585e+02
5.060000000000000000e+02,8.108128100000000131e+02
5.070000000000000000e+02,8.111325100000000248e+02
5.080000000000000000e+02,8.114489700000000312e+02
5.090000000000000000e+02,8.117622699999999440e+02
5.100000000000000000e+02,8.120725099999999657e+02
5.110000000000000000e+02,8.123796999999999571e+02
5.120000000000000000e+02,8.126837199999999939e+02
5.130000000000000000e+02,8.129847999999999502e+02
5.140000000000000000e+02,8.132828399999999647e+02
5.150000000000000000e+02,8.135779400000000123e+02
5.160000000000000000e+02,8.138700599999999667e+02
5.170000000000000000e+02,8.141593000000000302e+02
5.180000000000000000e+02,8.144456199999999626e+02
5.190000000000000000e+02,8.147291300000000547e+02
5.200000000000000000e+02,8.150098299999999654e+02
5.210000000000000000e+02,8.152876599999999598e+02
5.220000000000000000e+02,8.155627399999999625e+02
5.230000000000000000e+02,8.158350799999999481e+02
5.240000000000000000e+02,8.161046800000000303e+02
5.250000000000000000e+02,8.163716399999999567e+02
5.260000000000000000e+02,8.166358599999999797e+02
5.270000000000000000e+02,8.168974600000000237e+02
5.280000000000000000e+02,8.171564899999999625e+02
5.290000000000000000e+02,8.174129000000000360e+02
5.300000000000000000e+02,8.176667499999999791e+02
5.310000000000000000e+02,8.179180300000000443e+02
5.320000000000000000e+02,8.181668100000000550e+02
5.330000000000000000e+02,8.184130900000000111e+02
5.340000000000000000e+02,8.186569200000000137e+02
5.350000000000000000e+02,8.188983200000000124e+02
5.360000000000000000e+02,8.191372699999999440e+02
5.370000000000000000e+02,8.193738399999999729e+02
5.380000000000000000e+02,8.196080299999999852e+02
5.390000000000000000e+02,8.198398999999999432e+02
5.400000000000000000e+02,8.200694600000000491e+02
5.410000000000000000e+02,8.202966900000000123e+02
5.420000000000000000e+02,8.205216100000000097e+02
5.430000000000000000e+02,8.207442600000000539e+02
5.440000000000000000e+02,8.209647200000000566e+02
5.450000000000000000e+02,8.211829199999999673e+02
5.460000000000000000e+02,8.213989900000000262e+02
5.470000000000000000e+02,8.216128499999999804e+02
5.480000000000000000e+02,8.218245799999999690e+02
5.490000000000000000e+02,8.220341799999999921e+02
5.500000000000000000e+02,8.222416399999999612e+02
5.510000000000000000e+02,8.224470199999999522e+02
5.520000000000000000e+02,8.226503900000000158e+02
5.530000000000000000e+02,8.228516799999999876e+02
5.540000000000000000e+02,8.230508999999999560e+02
5.550000000000000000e+02,8.232482300000000350e+02
5.560000000000000000e+02,8.234434800000000223e+02
5.570000000000000000e+02,8.236367800000000443e+02
5.580000000000000000e+02,8.238281200000000126e+02
5.590000000000000000e+02,8.240175799999999526e+02
5.600000000000000000e+02,8.242050799999999526e+02
5.610000000000000000e+02,8.243907500000000255e+02
5.620000000000000000e+02,8.245744600000000446e+02
5.630000000000000000e+02,8.247564099999999598e+02
5.640000000000000000e+02,8.249364600000000110e+02
5.650000000000000000e+02,8.251147499999999582e+02
5.660000000000000000e+02,8.252912000000000035e+02
5.670000000000000000e+02,8.254659400000000460e+02
5.680000000000000000e+02,8.256388500000000477e+02
5.690000000000000000e+02,8.258099999999999454e+02
5.700000000000000000e+02,8.259794900000000553e+02
5.710000000000000000e+02,8.261472199999999475e+02
5.720000000000000000e+02,8.263132299999999759e+02
5.730000000000000000e+02,8.264776000000000522e+02
5.740000000000000000e+02,8.266403199999999742e+02
5.750000000000000000e+02,8.268013899999999694e+02
5.760000000000000000e+02,8.269608200000000124e+02
5.770000000000000000e+02,8.271186500000000024e+02
5.780000000000000000e+02,8.272749000000000024e+02
5.790000000000000000e+02,8.274295700000000124e+02
5.800000000000000000e+02,8.275826399999999694e+02
5.810000000000000000e+02,8.277341900000000123e+02
5.820000000000000000e+02,8.278842200000000275e+02
5.830000000000000000e+02,8.280327099999999518e+02
5.840000000000000000e+02,8.281796900000000505e+02
5.850000000000000000e+02,8.283251999999999953e+02
5.860000000000000000e+02,8.284692400000000134e+02
5.870000000000000000e+02,8.286118199999999661e+02
5.880000000000000000e+02,8.287529299999999921e+02
5.890000000000000000e+02,8.288926400000000285e+02
5.900000000000000000e+02,8.290309399999999869e+02
5.910000000000000000e+02,8.291677899999999681e+02
5.920000000000000000e+02,8.293033400000000483e+02
5.930000000000000000e+02,8.294374400000000378e+02
5.940000000000000000e+02,8.295702499999999873e+02
5.950000000000000000e+02,8.297016599999999471e+02
5.960000000000000000e+02,8.298317299999999932e+02
5.970000000000000000e+02,8.299605099999999993e+02
5.980000000000000000e+02,8.300880100000000539e+02
5.990000000000000000e+02,8.302141699999999673e+02