# Time [s], Temperature [C]
1.000000000000000000e+00,2.499997099999999861e+01
2.000000000000000000e+00,7.704030600000000106e+01
3.000000000000000000e+00,1.056241700000000066e+02
4.000000000000000000e+00,1.288303999999999974e+02
5.000000000000000000e+00,1.479986100000000135e+02
6.000000000000000000e+00,1.647246700000000033e+02
7.000000000000000000e+00,1.795888999999999953e+02
8.000000000000000000e+00,1.930399500000000046e+02
9.000000000000000000e+00,2.053473099999999931e+02
1.000000000000000000e+01,2.167138400000000047e+02
1.100000000000000000e+01,2.272911499999999876e+02
1.200000000000000000e+01,2.372019200000000012e+02
1.300000000000000000e+01,2.465564599999999871e+02
1.400000000000000000e+01,2.554572599999999909e+02
1.500000000000000000e+01,2.639814499999999953e+02
1.600000000000000000e+01,2.721694600000000150e+02
1.700000000000000000e+01,2.799974700000000212e+02
1.800000000000000000e+01,2.874153699999999958e+02
1.900000000000000000e+01,2.943971599999999853e+02
2.000000000000000000e+01,3.009492799999999875e+02
2.100000000000000000e+01,3.070895399999999995e+02
2.200000000000000000e+01,3.128354199999999992e+02
2.300000000000000000e+01,3.182018699999999853e+02
2.400000000000000000e+01,3.231816999999999780e+02
2.500000000000000000e+01,3.277778900000000135e+02
2.600000000000000000e+01,3.316989699999999743e+02
2.700000000000000000e+01,3.344581000000000017e+02
2.800000000000000000e+01,3.380110799999999927e+02
2.900000000000000000e+01,3.411406600000000253e+02
3.000000000000000000e+01,3.440477300000000014e+02
3.100000000000000000e+01,3.466915000000000191e+02
3.200000000000000000e+01,3.491470600000000104e+02
3.300000000000000000e+01,3.514165300000000229e+02
3.400000000000000000e+01,3.535521499999999833e+02
3.500000000000000000e+01,3.556053800000000251e+02
3.600000000000000000e+01,3.575596600000000080e+02
3.700000000000000000e+01,3.594582199999999830e+02
3.800000000000000000e+01,3.613469499999999925e+02
3.900000000000000000e+01,3.631784099999999853e+02
4.000000000000000000e+01,3.649985399999999913e+02
4.100000000000000000e+01,3.668441500000000133e+02
4.200000000000000000e+01,3.686446799999999939e+02
4.300000000000000000e+01,3.704538299999999822e+02
4.400000000000000000e+01,3.723008100000000127e+02
4.500000000000000000e+01,3.740997899999999845e+02
4.600000000000000000e+01,3.759109799999999950e+02
4.700000000000000000e+01,3.777590000000000146e+02
4.800000000000000000e+01,3.795434900000000198e+02
4.900000000000000000e+01,3.813357500000000186e+02
5.000000000000000000e+01,3.831570699999999761e+02
5.100000000000000000e+01,3.849015499999999861e+02
5.200000000000000000e+01,3.866409899999999880e+02
5.300000000000000000e+01,3.884081699999999842e+02
5.400000000000000000e+01,3.900835000000000150e+02
5.500000000000000000e+01,3.917605300000000170e+02
5.600000000000000000e+01,3.934521199999999794e+02
5.700000000000000000e+01,3.950662199999999871e+02
5.800000000000000000e+01,3.966734900000000152e+02
5.900000000000000000e+01,3.983073999999999728e+02
6.000000000000000000e+01,3.998692899999999781e+02
6.100000000000000000e+01,4.014338399999999751e+02
6.200000000000000000e+01,4.030254499999999780e+02
6.300000000000000000e+01,4.045604599999999778e+02
6.400000000000000000e+01,4.060998799999999846e+02
6.500000000000000000e+01,4.076672100000000114e+02
6.600000000000000000e+01,4.091868299999999863e+02
6.700000000000000000e+01,4.107146299999999997e+02
6.800000000000000000e+01,4.122533000000000243e+02
6.900000000000000000e+01,4.137579700000000003e+02
7.000000000000000000e+01,4.152576900000000251e+02
7.100000000000000000e+01,4.167683400000000233e+02
7.200000000000000000e+01,4.182399599999999964e+02
7.300000000000000000e+01,4.197051999999999907e+02
7.400000000000000000e+01,4.211694299999999771e+02
7.500000000000000000e+01,4.226021099999999819e+02
7.600000000000000000e+01,4.240246000000000208e+02
7.700000000000000000e+01,4.254408599999999865e+02
7.800000000000000000e+01,4.268362999999999943e+02
7.900000000000000000e+01,4.282128299999999967e+02
8.000000000000000000e+01,4.318309300000000235e+02
8.100000000000000000e+01,4.177721900000000232e+02
8.200000000000000000e+01,4.230293599999999969e+02
8.300000000000000000e+01,4.226299999999999955e+02
8.400000000000000000e+01,4.251418199999999956e+02
8.500000000000000000e+01,4.261554300000000239e+02
8.600000000000000000e+01,4.280449800000000096e+02
8.700000000000000000e+01,4.293774099999999976e+02
8.800000000000000000e+01,4.310060399999999845e+02
8.900000000000000000e+01,4.324131199999999922e+02
9.000000000000000000e+01,4.339132700000000114e+02
9.100000000000000000e+01,4.353065799999999967e+02
9.200000000000000000e+01,4.367322100000000091e+02
9.300000000000000000e+01,4.380951499999999896e+02
9.400000000000000000e+01,4.394630099999999970e+02
9.500000000000000000e+01,4.407995599999999854e+02
9.600000000000000000e+01,4.421245700000000056e+02
9.700000000000000000e+01,4.434304200000000264e+02
9.800000000000000000e+01,4.447305600000000254e+02
9.900000000000000000e+01,4.460145299999999793e+02
1.000000000000000000e+02,4.472883899999999926e+02
1.010000000000000000e+02,4.485563700000000154e+02
1.020000000000000000e+02,4.498109999999999786e+02
1.030000000000000000e+02,4.510542599999999993e+02
1.040000000000000000e+02,4.522962299999999800e+02
1.050000000000000000e+02,4.535230099999999993e+02
1.060000000000000000e+02,4.547446600000000103e+02
1.070000000000000000e+02,4.559540400000000204e+02
1.080000000000000000e+02,4.571539900000000216e+02
1.090000000000000000e+02,4.583402100000000132e+02
1.100000000000000000e+02,4.595202899999999886e+02
1.110000000000000000e+02,4.606847799999999893e+02
1.120000000000000000e+02,4.618405799999999886e+02
1.130000000000000000e+02,4.629870900000000233e+02
1.140000000000000000e+02,4.641189899999999966e+02
1.150000000000000000e+02,4.652419100000000185e+02
1.160000000000000000e+02,4.663574199999999905e+02
1.170000000000000000e+02,4.674640200000000050e+02
1.180000000000000000e+02,4.685558800000000019e+02
1.190000000000000000e+02,4.696454200000000014e+02
1.200000000000000000e+02,4.707242400000000089e+02
1.210000000000000000e+02,4.717981599999999958e+02
1.220000000000000000e+02,4.718410600000000272e+02
1.230000000000000000e+02,4.721716299999999933e+02
1.240000000000000000e+02,4.725790700000000015e+02
1.250000000000000000e+02,4.735323200000000270e+02
1.260000000000000000e+02,4.744623700000000213e+02
1.270000000000000000e+02,4.755386700000000246e+02
1.280000000000000000e+02,4.765929600000000050e+02
1.290000000000000000e+02,4.776840199999999754e+02
1.300000000000000000e+02,4.787559800000000223e+02
1.310000000000000000e+02,4.798358499999999935e+02
1.320000000000000000e+02,4.808977100000000178e+02
1.330000000000000000e+02,4.819575500000000261e+02
1.340000000000000000e+02,4.830027499999999918e+02
1.350000000000000000e+02,4.840400999999999954e+02
1.360000000000000000e+02,4.850686000000000035e+02
1.370000000000000000e+02,4.860863299999999754e+02
1.380000000000000000e+02,4.870963100000000168e+02
1.390000000000000000e+02,4.880940200000000004e+02
1.400000000000000000e+02,4.890873700000000213e+02
1.410000000000000000e+02,4.900678100000000086e+02
1.420000000000000000e+02,4.910419299999999794e+02
1.430000000000000000e+02,4.920048800000000142e+02
1.440000000000000000e+02,4.929619799999999827e+02
1.450000000000000000e+02,4.939061899999999810e+02
1.460000000000000000e+02,4.948494299999999839e+02
1.470000000000000000e+02,4.957774999999999750e+02
1.480000000000000000e+02,4.966966899999999896e+02
1.490000000000000000e+02,4.976115699999999720e+02
1.500000000000000000e+02,4.985184899999999857e+02
1.510000000000000000e+02,4.994139700000000062e+02
1.520000000000000000e+02,5.003059700000000021e+02
1.530000000000000000e+02,5.011908000000000243e+02
1.540000000000000000e+02,5.020670799999999758e+02
1.550000000000000000e+02,5.029389600000000087e+02
1.560000000000000000e+02,5.038031300000000101e+02
1.570000000000000000e+02,5.046601299999999810e+02
1.580000000000000000e+02,5.055157800000000066e+02
1.590000000000000000e+02,5.063618200000000229e+02
1.600000000000000000e+02,5.067574200000000246e+02
1.610000000000000000e+02,5.072857099999999946e+02
1.620000000000000000e+02,5.079635299999999916e+02
1.630000000000000000e+02,5.085319200000000137e+02
1.640000000000000000e+02,5.092813400000000001e+02
1.650000000000000000e+02,5.100047900000000141e+02
1.660000000000000000e+02,5.107941900000000146e+02
1.670000000000000000e+02,5.115840499999999906e+02
1.680000000000000000e+02,5.123942299999999932e+02
1.690000000000000000e+02,5.132020300000000361e+02
1.700000000000000000e+02,5.140201399999999694e+02
1.710000000000000000e+02,5.148315999999999804e+02
1.720000000000000000e+02,5.156432499999999663e+02
1.730000000000000000e+02,5.164512300000000096e+02
1.740000000000000000e+02,5.172509199999999510e+02
1.750000000000000000e+02,5.180479100000000017e+02
1.760000000000000000e+02,5.188396000000000186e+02
1.770000000000000000e+02,5.196208500000000186e+02
1.780000000000000000e+02,5.203986200000000508e+02
1.790000000000000000e+02,5.211701699999999846e+02
1.800000000000000000e+02,5.219310900000000402e+02
1.810000000000000000e+02,5.226881100000000515e+02
1.820000000000000000e+02,5.234385399999999890e+02
1.830000000000000000e+02,5.241815199999999777e+02
1.840000000000000000e+02,5.249179100000000062e+02
1.850000000000000000e+02,5.256489900000000262e+02
1.860000000000000000e+02,5.263736000000000104e+02
1.870000000000000000e+02,5.270913100000000213e+02
1.880000000000000000e+02,5.278051799999999503e+02
1.890000000000000000e+02,5.285114099999999553e+02
1.900000000000000000e+02,5.292143600000000561e+02
1.910000000000000000e+02,5.299075900000000274e+02
1.920000000000000000e+02,5.305286899999999832e+02
1.930000000000000000e+02,5.310358300000000327e+02
1.940000000000000000e+02,5.315775800000000118e+02
1.950000000000000000e+02,5.321459999999999582e+02
1.960000000000000000e+02,5.326983599999999797e+02
1.970000000000000000e+02,5.333034699999999475e+02
1.980000000000000000e+02,5.339014300000000048e+02
1.990000000000000000e+02,5.345263700000000426e+02
2.000000000000000000e+02,5.351503900000000158e+02
2.010000000000000000e+02,5.357858899999999949e+02
2.020000000000000000e+02,5.364172999999999547e+02
2.030000000000000000e+02,5.370563399999999774e+02
2.040000000000000000e+02,5.376897599999999784e+02
2.050000000000000000e+02,5.383240399999999681e+02
2.060000000000000000e+02,5.389572100000000319e+02
2.070000000000000000e+02,5.395837400000000343e+02
2.080000000000000000e+02,5.402111200000000508e+02
2.090000000000000000e+02,5.408313000000000557e+02
2.100000000000000000e+02,5.414493999999999687e+02
2.110000000000000000e+02,5.420598099999999704e+02
2.120000000000000000e+02,5.426681499999999687e+02
2.130000000000000000e+02,5.432713599999999587e+02
2.140000000000000000e+02,5.438697499999999536e+02
2.150000000000000000e+02,5.444655199999999695e+02
2.160000000000000000e+02,5.450521899999999960e+02
2.170000000000000000e+02,5.456370799999999690e+02
2.180000000000000000e+02,5.462181399999999485e+02
2.190000000000000000e+02,5.467948000000000093e+02
2.200000000000000000e+02,5.473454600000000028e+02
2.210000000000000000e+02,5.478207999999999629e+02
2.220000000000000000e+02,5.483015100000000075e+02
2.230000000000000000e+02,5.487904700000000275e+02
2.240000000000000000e+02,5.492780199999999695e+02
2.250000000000000000e+02,5.497731300000000374e+02
2.260000000000000000e+02,5.502753300000000536e+02
2.270000000000000000e+02,5.507841200000000299e+02
2.280000000000000000e+02,5.512955299999999852e+02
2.290000000000000000e+02,5.518125599999999622e+02
2.300000000000000000e+02,5.523308700000000044e+02
2.310000000000000000e+02,5.528515599999999495e+02
2.320000000000000000e+02,5.533696300000000292e+02
2.330000000000000000e+02,5.538922099999999773e+02
2.340000000000000000e+02,5.544096100000000433e+02
2.350000000000000000e+02,5.549254799999999932e+02
2.360000000000000000e+02,5.554441500000000360e+02
2.370000000000000000e+02,5.559574599999999691e+02
2.380000000000000000e+02,5.564702099999999518e+02
2.390000000000000000e+02,5.569806499999999687e+02
2.400000000000000000e+02,5.574886500000000069e+02
2.410000000000000000e+02,5.579935299999999643e+02
2.420000000000000000e+02,5.584974399999999832e+02
2.430000000000000000e+02,5.589977400000000216e+02
2.440000000000000000e+02,5.594965200000000323e+02
2.450000000000000000e+02,5.599921900000000505e+02
2.460000000000000000e+02,5.604885900000000447e+02
2.470000000000000000e+02,5.609785200000000032e+02
2.480000000000000000e+02,5.614700299999999515e+02
2.490000000000000000e+02,5.619564199999999801e+02
2.500000000000000000e+02,5.624360400000000482e+02
2.510000000000000000e+02,5.628862900000000309e+02
2.520000000000000000e+02,5.633212300000000141e+02
2.530000000000000000e+02,5.637551899999999705e+02
2.540000000000000000e+02,5.641929300000000467e+02
2.550000000000000000e+02,5.646264599999999518e+02
2.560000000000000000e+02,5.650675700000000461e+02
2.570000000000000000e+02,5.655100700000000415e+02
2.580000000000000000e+02,5.659574000000000069e+02
2.590000000000000000e+02,5.664079600000000028e+02
2.600000000000000000e+02,5.668630399999999554e+02
2.610000000000000000e+02,5.673179900000000089e+02
2.620000000000000000e+02,5.677772800000000188e+02
2.630000000000000000e+02,5.682379799999999932e+02
2.640000000000000000e+02,5.686991000000000440e+02
2.650000000000000000e+02,5.691643699999999626e+02
2.660000000000000000e+02,5.696288500000000568e+02
2.670000000000000000e+02,5.700952800000000025e+02
2.680000000000000000e+02,5.705628100000000131e+02
2.690000000000000000e+02,5.710313099999999622e+02
2.700000000000000000e+02,5.715001200000000381e+02
2.710000000000000000e+02,5.719716799999999921e+02
2.720000000000000000e+02,5.724451900000000251e+02
2.730000000000000000e+02,5.729180900000000065e+02
2.740000000000000000e+02,5.733939800000000560e+02
2.750000000000000000e+02,5.738704800000000432e+02
2.760000000000000000e+02,5.743496699999999464e+02
2.770000000000000000e+02,5.748308700000000044e+02
2.780000000000000000e+02,5.753137199999999893e+02
2.790000000000000000e+02,5.757994400000000041e+02
2.800000000000000000e+02,5.762857099999999946e+02
2.810000000000000000e+02,5.767799099999999726e+02
2.820000000000000000e+02,5.772725199999999859e+02
2.830000000000000000e+02,5.777719700000000103e+02
2.840000000000000000e+02,5.782726400000000240e+02
2.850000000000000000e+02,5.787805799999999863e+02
2.860000000000000000e+02,5.792905299999999897e+02
2.870000000000000000e+02,5.798031600000000481e+02
2.880000000000000000e+02,5.803044999999999618e+02
2.890000000000000000e+02,5.808104899999999589e+02
2.900000000000000000e+02,5.813195799999999736e+02
2.910000000000000000e+02,5.818368500000000267e+02
2.920000000000000000e+02,5.823620600000000422e+02
2.930000000000000000e+02,5.829000899999999774e+02
2.940000000000000000e+02,5.834461700000000519e+02
2.950000000000000000e+02,5.840074499999999489e+02
2.960000000000000000e+02,5.845819099999999935e+02
2.970000000000000000e+02,5.851673600000000306e+02
2.980000000000000000e+02,5.857688600000000179e+02
2.990000000000000000e+02,5.863840300000000525e+02
3.000000000000000000e+02,5.870170299999999770e+02
3.010000000000000000e+02,5.876639999999999873e+02
3.020000000000000000e+02,5.883317299999999932e+02
3.030000000000000000e+02,5.890171500000000151e+02
3.040000000000000000e+02,5.897216200000000299e+02
3.050000000000000000e+02,5.904498300000000199e+02
3.060000000000000000e+02,5.911998899999999821e+02
3.070000000000000000e+02,5.919760700000000497e+02
3.080000000000000000e+02,5.927769799999999805e+02
3.090000000000000000e+02,5.936076699999999846e+02
3.100000000000000000e+02,5.944677100000000110e+02
3.110000000000000000e+02,5.953629799999999932e+02
3.120000000000000000e+02,5.962928500000000440e+02
3.130000000000000000e+02,5.972603800000000547e+02
3.140000000000000000e+02,5.982690999999999804e+02
3.150000000000000000e+02,5.993209200000000010e+02
3.160000000000000000e+02,6.004149800000000141e+02
3.170000000000000000e+02,6.015556599999999889e+02
3.180000000000000000e+02,6.027380399999999554e+02
3.190000000000000000e+02,6.039633199999999533e+02
3.200000000000000000e+02,6.052308299999999690e+02
3.210000000000000000e+02,6.065314300000000003e+02
3.220000000000000000e+02,6.078624899999999798e+02
3.230000000000000000e+02,6.092202800000000025e+02
3.240000000000000000e+02,6.105942999999999756e+02
3.250000000000000000e+02,6.119833999999999605e+02
3.260000000000000000e+02,6.133784799999999677e+02
3.270000000000000000e+02,6.147777700000000323e+02
3.280000000000000000e+02,6.161722999999999502e+02
3.290000000000000000e+02,6.175656099999999924e+02
3.300000000000000000e+02,6.189436600000000226e+02
3.310000000000000000e+02,6.203140899999999647e+02
3.320000000000000000e+02,6.216683299999999690e+02
3.330000000000000000e+02,6.230079299999999876e+02
3.340000000000000000e+02,6.243267799999999852e+02
3.350000000000000000e+02,6.256323200000000497e+02
3.360000000000000000e+02,6.269132100000000491e+02
3.370000000000000000e+02,6.281752300000000560e+02
3.380000000000000000e+02,6.294175999999999931e+02
3.390000000000000000e+02,6.306390400000000227e+02
3.400000000000000000e+02,6.318363000000000511e+02
3.410000000000000000e+02,6.330163000000000011e+02
3.420000000000000000e+02,6.341716900000000123e+02
3.430000000000000000e+02,6.353060900000000402e+02
3.440000000000000000e+02,6.364224199999999882e+02
3.450000000000000000e+02,6.375151399999999740e+02
3.460000000000000000e+02,6.385853899999999612e+02
3.470000000000000000e+02,6.396397699999999986e+02
3.480000000000000000e+02,6.406701000000000477e+02
3.490000000000000000e+02,6.416816400000000158e+02
3.500000000000000000e+02,6.426752900000000182e+02
3.510000000000000000e+02,6.436478899999999612e+02
3.520000000000000000e+02,6.445995500000000220e+02
3.530000000000000000e+02,6.455383900000000494e+02
3.540000000000000000e+02,6.464525800000000118e+02
3.550000000000000000e+02,6.473499799999999595e+02
3.560000000000000000e+02,6.482334600000000364e+02
3.570000000000000000e+02,6.490947300000000268e+02
3.580000000000000000e+02,6.499397599999999784e+02
3.590000000000000000e+02,6.507705700000000206e+02
3.600000000000000000e+02,6.515808100000000422e+02
3.610000000000000000e+02,6.523772000000000162e+02
3.620000000000000000e+02,6.531573499999999513e+02
3.630000000000000000e+02,6.539210199999999986e+02
3.640000000000000000e+02,6.546686999999999443e+02
3.650000000000000000e+02,6.554045399999999972e+02
3.660000000000000000e+02,6.561212799999999561e+02
3.670000000000000000e+02,6.568252599999999575e+02
3.680000000000000000e+02,6.575166000000000395e+02
3.690000000000000000e+02,6.581918299999999817e+02
3.700000000000000000e+02,6.588533899999999903e+02
3.710000000000000000e+02,6.595029299999999921e+02
3.720000000000000000e+02,6.601374499999999443e+02
3.730000000000000000e+02,6.607593399999999519e+02
3.740000000000000000e+02,6.613695699999999533e+02
3.750000000000000000e+02,6.619663699999999835e+02
3.760000000000000000e+02,6.625494400000000041e+02
3.770000000000000000e+02,6.631243299999999863e+02
3.780000000000000000e+02,6.636829800000000432e+02
3.790000000000000000e+02,6.642327299999999468e+02
3.800000000000000000e+02,6.647711799999999585e+02
3.810000000000000000e+02,6.652982200000000148e+02
3.820000000000000000e+02,6.658126800000000003e+02
3.830000000000000000e+02,6.663199499999999489e+02
3.840000000000000000e+02,6.668129300000000512e+02
3.850000000000000000e+02,6.672983400000000529e+02
3.860000000000000000e+02,6.677728899999999612e+02
3.870000000000000000e+02,6.682372400000000425e+02
3.880000000000000000e+02,6.686906699999999546e+02
3.890000000000000000e+02,6.691385500000000093e+02
3.900000000000000000e+02,6.695732400000000553e+02
3.910000000000000000e+02,6.700001800000000003e+02
3.920000000000000000e+02,6.704185800000000199e+02
3.930000000000000000e+02,6.708275800000000118e+02
3.940000000000000000e+02,6.712275399999999763e+02
3.950000000000000000e+02,6.716211499999999432e+02
3.960000000000000000e+02,6.720043899999999439e+02
3.970000000000000000e+02,6.723804300000000467e+02
3.980000000000000000e+02,6.727494500000000244e+02
3.990000000000000000e+02,6.731095599999999877e+02
4.000000000000000000e+02,6.734620400000000018e+02
4.010000000000000000e+02,6.738084700000000566e+02
4.020000000000000000e+02,6.741459999999999582e+02
4.030000000000000000e+02,6.744769300000000385e+02
4.040000000000000000e+02,6.748008999999999560e+02
4.050000000000000000e+02,6.751182300000000396e+02
4.060000000000000000e+02,6.754280400000000100e+02
4.070000000000000000e+02,6.757329099999999471e+02
4.080000000000000000e+02,6.760299700000000485e+02
4.090000000000000000e+02,6.763201299999999492e+02
4.100000000000000000e+02,6.766063799999999446e+02
4.110000000000000000e+02,6.768847700000000032e+02
4.120000000000000000e+02,6.771580199999999650e+02
4.130000000000000000e+02,6.774252900000000182e+02
4.140000000000000000e+02,6.776870699999999488e+02
4.150000000000000000e+02,6.779429300000000467e+02
4.160000000000000000e+02,6.781937900000000354e+02
4.170000000000000000e+02,6.784389599999999518e+02
4.180000000000000000e+02,6.786790200000000368e+02
4.190000000000000000e+02,6.789139999999999873e+02
4.200000000000000000e+02,6.791440999999999804e+02
4.210000000000000000e+02,6.793679799999999886e+02
4.220000000000000000e+02,6.795894799999999805e+02
4.230000000000000000e+02,6.798045700000000124e+02
4.240000000000000000e+02,6.800148299999999608e+02
4.250000000000000000e+02,6.802226000000000568e+02
4.260000000000000000e+02,6.804234599999999773e+02
4.270000000000000000e+02,6.806217699999999695e+02
4.280000000000000000e+02,6.808150000000000546e+02
4.290000000000000000e+02,6.810049400000000333e+02
4.300000000000000000e+02,6.811891500000000406e+02
4.310000000000000000e+02,6.813719499999999698e+02
4.320000000000000000e+02,6.815480999999999767e+02
4.330000000000000000e+02,6.817226000000000568e+02
4.340000000000000000e+02,6.818919700000000148e+02
4.350000000000000000e+02,6.820590200000000323e+02
4.360000000000000000e+02,6.822205800000000409e+02
4.370000000000000000e+02,6.823803699999999708e+02
4.380000000000000000e+02,6.825360699999999952e+02
4.390000000000000000e+02,6.826879300000000512e+02
4.400000000000000000e+02,6.828383199999999533e+02
4.410000000000000000e+02,6.829834600000000364e+02
4.420000000000000000e+02,6.831260399999999890e+02
4.430000000000000000e+02,6.832667199999999639e+02
4.440000000000000000e+02,6.834028299999999945e+02
4.450000000000000000e+02,6.835363800000000083e+02
4.460000000000000000e+02,6.836682100000000446e+02
4.470000000000000000e+02,6.837957800000000361e+02
4.480000000000000000e+02,6.839207800000000361e+02
4.490000000000000000e+02,6.840444300000000339e+02
4.500000000000000000e+02,6.841636999999999489e+02
4.510000000000000000e+02,6.842810100000000375e+02
4.520000000000000000e+02,6.843966699999999719e+02
4.530000000000000000e+02,6.845084200000000010e+02
4.540000000000000000e+02,6.846182300000000396e+02
4.550000000000000000e+02,6.847268100000000004e+02
4.560000000000000000e+02,6.848314800000000560e+02
4.570000000000000000e+02,6.849345100000000457e+02
4.580000000000000000e+02,6.850352199999999812e+02
4.590000000000000000e+02,6.851344599999999900e+02
4.600000000000000000e+02,6.852303500000000440e+02
4.610000000000000000e+02,6.853252599999999575e+02
4.620000000000000000e+02,6.854169900000000553e+02
4.630000000000000000e+02,6.855081199999999626e+02
4.640000000000000000e+02,6.855961899999999787e+02
4.650000000000000000e+02,6.856828600000000051e+02
4.660000000000000000e+02,6.857668499999999767e+02
4.670000000000000000e+02,6.858507700000000114e+02
4.680000000000000000e+02,6.859310299999999643e+02
4.690000000000000000e+02,6.860104999999999791e+02
4.700000000000000000e+02,6.860878900000000158e+02
4.710000000000000000e+02,6.861636399999999867e+02
4.720000000000000000e+02,6.862383399999999938e+02
4.730000000000000000e+02,6.863109699999999975e+02
4.740000000000000000e+02,6.863818999999999733e+02
4.750000000000000000e+02,6.864511700000000474e+02
4.760000000000000000e+02,6.865192899999999554e+02
4.770000000000000000e+02,6.865855099999999993e+02
4.780000000000000000e+02,6.866513099999999667e+02
4.790000000000000000e+02,6.867147800000000188e+02
4.800000000000000000e+02,6.867770400000000564e+02
4.810000000000000000e+02,6.868377100000000155e+02
4.820000000000000000e+02,6.868975199999999859e+02
4.830000000000000000e+02,6.869554399999999532e+02
4.840000000000000000e+02,6.870132399999999961e+02
4.850000000000000000e+02,6.870688499999999976e+02
4.860000000000000000e+02,6.871236000000000104e+02
4.870000000000000000e+02,6.871766999999999825e+02
4.880000000000000000e+02,6.872292499999999791e+02
4.890000000000000000e+02,6.872800300000000107e+02
4.900000000000000000e+02,6.873300199999999904e+02
4.910000000000000000e+02,6.873797600000000330e+02
4.920000000000000000e+02,6.874272499999999582e+02
4.930000000000000000e+02,6.874741800000000467e+02
4.940000000000000000e+02,6.875199599999999691e+02
4.950000000000000000e+02,6.875647599999999784e+02
4.960000000000000000e+02,6.876084600000000364e+02
4.970000000000000000e+02,6.876514300000000048e+02
4.980000000000000000e+02,6.876930499999999711e+02
4.990000000000000000e+02,6.877349199999999882e+02
5.000000000000000000e+02,6.877748400000000402e+02
5.010000000000000000e+02,6.878142699999999650e+02
5.020000000000000000e+02,6.878524800000000141e+02
5.030000000000000000e+02,6.878903199999999742e+02
5.040000000000000000e+02,6.879268799999999828e+02
5.050000000000000000e+02,6.879628300000000536e+02
5.060000000000000000e+02,6.879980500000000347e+02
5.070000000000000000e+02,6.880324100000000271e+02
5.080000000000000000e+02,6.880659799999999677e+02
5.090000000000000000e+02,6.880989399999999705e+02
5.100000000000000000e+02,6.881318400000000111e+02
5.110000000000000000e+02,6.881630900000000111e+02
5.120000000000000000e+02,6.881942099999999982e+02
5.130000000000000000e+02,6.882241199999999708e+02
5.140000000000000000e+02,6.882537200000000439e+02
5.150000000000000000e+02,6.882825900000000274e+02
5.160000000000000000e+02,6.883107899999999972e+02
5.170000000000000000e+02,6.883383199999999533e+02
5.180000000000000000e+02,6.883654800000000478e+02
5.190000000000000000e+02,6.883917800000000398e+02
5.200000000000000000e+02,6.884176599999999553e+02
5.210000000000000000e+02,6.884429300000000467e+02
5.220000000000000000e+02,6.884675899999999729e+02
5.230000000000000000e+02,6.884925500000000511e+02
5.240000000000000000e+02,6.885160499999999502e+02
5.250000000000000000e+02,6.885393699999999626e+02
5.260000000000000000e+02,6.885618899999999485e+02
5.270000000000000000e+02,6.885842300000000478e+02
5.280000000000000000e+02,6.886057700000000068e+02
5.290000000000000000e+02,6.886270100000000411e+02
5.300000000000000000e+02,6.886477700000000368e+02
5.310000000000000000e+02,6.886680300000000443e+02
5.320000000000000000e+02,6.886878100000000131e+02
5.330000000000000000e+02,6.887073400000000447e+02
5.340000000000000000e+02,6.887262600000000248e+02
5.350000000000000000e+02,6.887448699999999917e+02
5.360000000000000000e+02,6.887630599999999959e+02
5.370000000000000000e+02,6.887808199999999488e+02
5.380000000000000000e+02,6.887981600000000526e+02
5.390000000000000000e+02,6.888152499999999918e+02
5.400000000000000000e+02,6.888318500000000313e+02
5.410000000000000000e+02,6.888480799999999817e+02
5.420000000000000000e+02,6.888639500000000453e+02
5.430000000000000000e+02,6.888803699999999708e+02
5.440000000000000000e+02,6.888952600000000075e+02
5.450000000000000000e+02,6.889105200000000195e+02
5.460000000000000000e+02,6.889249300000000176e+02
5.470000000000000000e+02,6.889393300000000409e+02
5.480000000000000000e+02,6.889531899999999496e+02
5.490000000000000000e+02,6.889669199999999591e+02
5.500000000000000000e+02,6.889801599999999553e+02
5.510000000000000000e+02,6.889933499999999640e+02
5.520000000000000000e+02,6.890060399999999845e+02
5.530000000000000000e+02,6.890186200000000554e+02
5.540000000000000000e+02,6.890308199999999488e+02
5.550000000000000000e+02,6.890427899999999681e+02
5.560000000000000000e+02,6.890544399999999996e+02
5.570000000000000000e+02,6.890659200000000055e+02
5.580000000000000000e+02,6.890770899999999983e+02
5.590000000000000000e+02,6.890880100000000539e+02
5.600000000000000000e+02,6.890987499999999955e+02
5.610000000000000000e+02,6.891092499999999745e+02
5.620000000000000000e+02,6.891194500000000289e+02
5.630000000000000000e+02,6.891295199999999568e+02
5.640000000000000000e+02,6.891393399999999474e+02
5.650000000000000000e+02,6.891489299999999503e+02
5.660000000000000000e+02,6.891583299999999781e+02
5.670000000000000000e+02,6.891674799999999550e+02
5.680000000000000000e+02,6.891764500000000453e+02
5.690000000000000000e+02,6.891852400000000216e+02
5.700000000000000000e+02,6.891938499999999976e+02
5.710000000000000000e+02,6.892022100000000364e+02
5.720000000000000000e+02,6.892104500000000371e+02
5.730000000000000000e+02,6.892185100000000375e+02
5.740000000000000000e+02,6.892263799999999492e+02
5.750000000000000000e+02,6.892340699999999742e+02
5.760000000000000000e+02,6.892415200000000368e+02
5.770000000000000000e+02,6.892496899999999869e+02
5.780000000000000000e+02,6.892566500000000360e+02
5.790000000000000000e+02,6.892639799999999468e+02
5.800000000000000000e+02,6.892706899999999450e+02
5.810000000000000000e+02,6.892776499999999942e+02
5.820000000000000000e+02,6.892841200000000299e+02
5.830000000000000000e+02,6.892906500000000278e+02
5.840000000000000000e+02,6.892969399999999496e+02
5.850000000000000000e+02,6.893031600000000481e+02
5.860000000000000000e+02,6.893091399999999567e+02
5.870000000000000000e+02,6.893150600000000168e+02
5.880000000000000000e+02,6.893207999999999629e+02
5.890000000000000000e+02,6.893264799999999468e+02
5.900000000000000000e+02,6.893320300000000316e+02
5.910000000000000000e+02,6.893374599999999646e+02
5.920000000000000000e+02,6.893427100000000110e+02
5.930000000000000000e+02,6.893478999999999814e+02
5.940000000000000000e+02,6.893529700000000275e+02
5.950000000000000000e+02,6.893579099999999471e+02
5.960000000000000000e+02,6.893627900000000182e+02
5.970000000000000000e+02,6.893674899999999752e+02
5.980000000000000000e+02,6.893721299999999701e+02
5.990000000000000000e+02,6.893767100000000028e+02