# Time [s], Temperature [C]
1.000000000000000000e+00,2.500000000000000000e+01
2.000000000000000000e+00,2.500000000000000000e+01
3.000000000000000000e+00,2.500000000000000000e+01
4.000000000000000000e+00,2.500000000000000000e+01
5.000000000000000000e+00,2.500000800000000112e+01
6.000000000000000000e+00,2.500004600000000110e+01
7.000000000000000000e+00,2.500020800000000065e+01
8.000000000000000000e+00,2.500074599999999947e+01
9.000000000000000000e+00,2.500224700000000055e+01
1.000000000000000000e+01,2.500584599999999824e+01
1.100000000000000000e+01,2.501346399999999903e+01
1.200000000000000000e+01,2.502942699999999832e+01
1.300000000000000000e+01,2.505664099999999905e+01
1.400000000000000000e+01,2.510035500000000042e+01
1.500000000000000000e+01,2.516644099999999895e+01
1.600000000000000000e+01,2.526128599999999835e+01
1.700000000000000000e+01,2.539160000000000039e+01
1.800000000000000000e+01,2.556417700000000082e+01
1.900000000000000000e+01,2.578566700000000012e+01
2.000000000000000000e+01,2.606240999999999985e+01
2.100000000000000000e+01,2.640025899999999837e+01
2.200000000000000000e+01,2.680444900000000175e+01
2.300000000000000000e+01,2.727951399999999893e+01
2.400000000000000000e+01,2.782925600000000088e+01
2.500000000000000000e+01,2.845669900000000041e+01
2.600000000000000000e+01,2.916410399999999825e+01
2.700000000000000000e+01,2.995303499999999985e+01
2.800000000000000000e+01,3.082440199999999919e+01
2.900000000000000000e+01,3.177855500000000077e+01
3.000000000000000000e+01,3.281537600000000054e+01
3.100000000000000000e+01,3.393425799999999981e+01
3.200000000000000000e+01,3.513428100000000143e+01
3.300000000000000000e+01,3.641423400000000044e+01
3.400000000000000000e+01,3.777266300000000143e+01
3.500000000000000000e+01,3.920798899999999776e+01
3.600000000000000000e+01,4.071839099999999689e+01
3.700000000000000000e+01,4.230198299999999989e+01
3.800000000000000000e+01,4.395709999999999695e+01
3.900000000000000000e+01,4.568137000000000114e+01
4.000000000000000000e+01,4.747282400000000280e+01
4.100000000000000000e+01,4.932934600000000103e+01
4.200000000000000000e+01,5.124900800000000345e+01
4.300000000000000000e+01,5.322980499999999893e+01
4.400000000000000000e+01,5.526980600000000265e+01
4.500000000000000000e+01,5.736720300000000350e+01
4.600000000000000000e+01,5.952031300000000158e+01
4.700000000000000000e+01,6.172737500000000210e+01
4.800000000000000000e+01,6.398682800000000270e+01
4.900000000000000000e+01,6.629692799999999409e+01
5.000000000000000000e+01,6.865595199999999920e+01
5.100000000000000000e+01,7.106232500000000130e+01
5.200000000000000000e+01,7.351442699999999775e+01
5.300000000000000000e+01,7.601055100000000664e+01
5.400000000000000000e+01,7.854912600000000111e+01
5.500000000000000000e+01,8.112862400000000207e+01
5.600000000000000000e+01,8.374736000000000047e+01
5.700000000000000000e+01,8.640398399999999413e+01
5.800000000000000000e+01,8.909692400000000134e+01
5.900000000000000000e+01,9.182460000000000377e+01
6.000000000000000000e+01,9.458560199999999440e+01
6.100000000000000000e+01,9.737845599999999990e+01
6.200000000000000000e+01,1.002017199999999946e+02
6.300000000000000000e+01,1.030539600000000036e+02
6.400000000000000000e+01,1.059339300000000037e+02
6.500000000000000000e+01,1.088425299999999964e+02
6.600000000000000000e+01,1.117750999999999948e+02
6.700000000000000000e+01,1.147313099999999935e+02
6.800000000000000000e+01,1.177098699999999951e+02
6.900000000000000000e+01,1.207098600000000062e+02
7.000000000000000000e+01,1.237302600000000012e+02
7.100000000000000000e+01,1.267702299999999980e+02
7.200000000000000000e+01,1.298286600000000135e+02
7.300000000000000000e+01,1.329045999999999879e+02
7.400000000000000000e+01,1.359969600000000014e+02
7.500000000000000000e+01,1.391045200000000079e+02
7.600000000000000000e+01,1.422262299999999868e+02
7.700000000000000000e+01,1.453609500000000025e+02
7.800000000000000000e+01,1.485076899999999966e+02
7.900000000000000000e+01,1.516653300000000115e+02
8.000000000000000000e+01,1.548327899999999886e+02
8.100000000000000000e+01,1.580090199999999925e+02
8.200000000000000000e+01,1.611929800000000057e+02
8.300000000000000000e+01,1.643836699999999951e+02
8.400000000000000000e+01,1.675801099999999906e+02
8.500000000000000000e+01,1.707813400000000001e+02
8.600000000000000000e+01,1.739864499999999907e+02
8.700000000000000000e+01,1.771944900000000018e+02
8.800000000000000000e+01,1.804045399999999972e+02
8.900000000000000000e+01,1.836156799999999976e+02
9.000000000000000000e+01,1.868269500000000107e+02
9.100000000000000000e+01,1.900374300000000005e+02
9.200000000000000000e+01,1.932461700000000064e+02
9.300000000000000000e+01,1.964599200000000110e+02
9.400000000000000000e+01,1.996657099999999900e+02
9.500000000000000000e+01,2.028662699999999859e+02
9.600000000000000000e+01,2.060621199999999931e+02
9.700000000000000000e+01,2.092531700000000114e+02
9.800000000000000000e+01,2.124389500000000055e+02
9.900000000000000000e+01,2.156182599999999923e+02
1.000000000000000000e+02,2.187894699999999943e+02
1.010000000000000000e+02,2.219509700000000123e+02
1.020000000000000000e+02,2.251012299999999868e+02
1.030000000000000000e+02,2.282388899999999978e+02
1.040000000000000000e+02,2.313626899999999864e+02
1.050000000000000000e+02,2.344713299999999947e+02
1.060000000000000000e+02,2.375634900000000016e+02
1.070000000000000000e+02,2.406378200000000049e+02
1.080000000000000000e+02,2.436930499999999995e+02
1.090000000000000000e+02,2.467277200000000050e+02
1.100000000000000000e+02,2.497403099999999938e+02
1.110000000000000000e+02,2.527290999999999883e+02
1.120000000000000000e+02,2.556923199999999952e+02
1.130000000000000000e+02,2.586279000000000110e+02
1.140000000000000000e+02,2.615337499999999977e+02
1.150000000000000000e+02,2.644076800000000276e+02
1.160000000000000000e+02,2.672471600000000080e+02
1.170000000000000000e+02,2.700496200000000044e+02
1.180000000000000000e+02,2.728122900000000186e+02
1.190000000000000000e+02,2.755321999999999889e+02
1.200000000000000000e+02,2.782075500000000261e+02
1.210000000000000000e+02,2.808378599999999778e+02
1.220000000000000000e+02,2.834223000000000070e+02
1.230000000000000000e+02,2.859576700000000073e+02
1.240000000000000000e+02,2.884373800000000188e+02
1.250000000000000000e+02,2.908537299999999846e+02
1.260000000000000000e+02,2.932008700000000090e+02
1.270000000000000000e+02,2.954748200000000224e+02
1.280000000000000000e+02,2.976726100000000201e+02
1.290000000000000000e+02,2.997917499999999791e+02
1.300000000000000000e+02,3.018301399999999717e+02
1.310000000000000000e+02,3.037861599999999953e+02
1.320000000000000000e+02,3.056587499999999977e+02
1.330000000000000000e+02,3.074476300000000037e+02
1.340000000000000000e+02,3.091532599999999888e+02
1.350000000000000000e+02,3.107771299999999997e+02
1.360000000000000000e+02,3.123216199999999958e+02
1.370000000000000000e+02,3.137899199999999951e+02
1.380000000000000000e+02,3.151859999999999786e+02
1.390000000000000000e+02,3.165145899999999983e+02
1.400000000000000000e+02,3.177810699999999997e+02
1.410000000000000000e+02,3.189909999999999854e+02
1.420000000000000000e+02,3.202262900000000059e+02
1.430000000000000000e+02,3.214009100000000103e+02
1.440000000000000000e+02,3.225295399999999972e+02
1.450000000000000000e+02,3.236119100000000230e+02
1.460000000000000000e+02,3.246519499999999994e+02
1.470000000000000000e+02,3.256608299999999758e+02
1.480000000000000000e+02,3.266497200000000021e+02
1.490000000000000000e+02,3.276265599999999836e+02
1.500000000000000000e+02,3.285968599999999924e+02
1.510000000000000000e+02,3.295654900000000112e+02
1.520000000000000000e+02,3.305366500000000087e+02
1.530000000000000000e+02,3.315139199999999846e+02
1.540000000000000000e+02,3.325008900000000267e+02
1.550000000000000000e+02,3.335005800000000136e+02
1.560000000000000000e+02,3.345158400000000256e+02
1.570000000000000000e+02,3.355495000000000232e+02
1.580000000000000000e+02,3.366040600000000040e+02
1.590000000000000000e+02,3.376816699999999969e+02
1.600000000000000000e+02,3.387844799999999736e+02
1.610000000000000000e+02,3.399148299999999949e+02
1.620000000000000000e+02,3.414607799999999997e+02
1.630000000000000000e+02,3.427766100000000051e+02
1.640000000000000000e+02,3.440246300000000019e+02
1.650000000000000000e+02,3.452788400000000024e+02
1.660000000000000000e+02,3.465648199999999974e+02
1.670000000000000000e+02,3.479058800000000247e+02
1.680000000000000000e+02,3.492977599999999825e+02
1.690000000000000000e+02,3.507441699999999969e+02
1.700000000000000000e+02,3.522477700000000027e+02
1.710000000000000000e+02,3.538112499999999727e+02
1.720000000000000000e+02,3.554397599999999784e+02
1.730000000000000000e+02,3.571372700000000009e+02
1.740000000000000000e+02,3.589108299999999758e+02
1.750000000000000000e+02,3.607662000000000262e+02
1.760000000000000000e+02,3.627112099999999941e+02
1.770000000000000000e+02,3.647541200000000003e+02
1.780000000000000000e+02,3.669046599999999785e+02
1.790000000000000000e+02,3.691736799999999903e+02
1.800000000000000000e+02,3.715738799999999742e+02
1.810000000000000000e+02,3.741188399999999774e+02
1.820000000000000000e+02,3.768256799999999771e+02
1.830000000000000000e+02,3.797124900000000025e+02
1.840000000000000000e+02,3.828002299999999991e+02
1.850000000000000000e+02,3.861147799999999961e+02
1.860000000000000000e+02,3.907810099999999807e+02
1.870000000000000000e+02,3.950630199999999945e+02
1.880000000000000000e+02,3.990199600000000260e+02
1.890000000000000000e+02,4.036130699999999933e+02
1.900000000000000000e+02,4.085949400000000082e+02
1.910000000000000000e+02,4.140617399999999861e+02
1.920000000000000000e+02,4.201297599999999761e+02
1.930000000000000000e+02,4.268509500000000116e+02
1.940000000000000000e+02,4.344355800000000158e+02
1.950000000000000000e+02,4.429971899999999891e+02
1.960000000000000000e+02,4.527523199999999974e+02
1.970000000000000000e+02,4.636915900000000192e+02
1.980000000000000000e+02,4.755769300000000044e+02
1.990000000000000000e+02,4.877147800000000188e+02
2.000000000000000000e+02,4.993851000000000226e+02
2.010000000000000000e+02,5.102367600000000039e+02
2.020000000000000000e+02,5.203040200000000368e+02
2.030000000000000000e+02,5.297057499999999663e+02
2.040000000000000000e+02,5.385595700000000079e+02
2.050000000000000000e+02,5.469456800000000385e+02
2.060000000000000000e+02,5.549366499999999860e+02
2.070000000000000000e+02,5.625928300000000490e+02
2.080000000000000000e+02,5.699563600000000179e+02
2.090000000000000000e+02,5.770586499999999432e+02
2.100000000000000000e+02,5.839252300000000560e+02
2.110000000000000000e+02,5.905758700000000090e+02
2.120000000000000000e+02,5.970281999999999698e+02
2.130000000000000000e+02,6.032944899999999961e+02
2.140000000000000000e+02,6.093868400000000065e+02
2.150000000000000000e+02,6.153150000000000546e+02
2.160000000000000000e+02,6.210867899999999509e+02
2.170000000000000000e+02,6.267092300000000478e+02
2.180000000000000000e+02,6.321889599999999518e+02
2.190000000000000000e+02,6.375307599999999866e+02
2.200000000000000000e+02,6.427394399999999450e+02
2.210000000000000000e+02,6.478195200000000114e+02
2.220000000000000000e+02,6.527746600000000399e+02
2.230000000000000000e+02,6.576087599999999611e+02
2.240000000000000000e+02,6.623245200000000068e+02
2.250000000000000000e+02,6.669254799999999932e+02
2.260000000000000000e+02,6.714147299999999632e+02
2.270000000000000000e+02,6.757944899999999961e+02
2.280000000000000000e+02,6.800677500000000464e+02
2.290000000000000000e+02,6.842364499999999907e+02
2.300000000000000000e+02,6.883037100000000237e+02
2.310000000000000000e+02,6.922715500000000475e+02
2.320000000000000000e+02,6.961420900000000529e+02
2.330000000000000000e+02,6.999179100000000062e+02
2.340000000000000000e+02,7.036007100000000491e+02
2.350000000000000000e+02,7.071930499999999711e+02
2.360000000000000000e+02,7.106967799999999897e+02
2.370000000000000000e+02,7.141139500000000453e+02
2.380000000000000000e+02,7.174463500000000522e+02
2.390000000000000000e+02,7.206961700000000519e+02
2.400000000000000000e+02,7.238649900000000343e+02
2.410000000000000000e+02,7.269550199999999904e+02
2.420000000000000000e+02,7.299677699999999732e+02
2.430000000000000000e+02,7.329052100000000110e+02
2.440000000000000000e+02,7.357689199999999801e+02
2.450000000000000000e+02,7.385607300000000350e+02
2.460000000000000000e+02,7.412822899999999890e+02
2.470000000000000000e+02,7.439351799999999457e+02
2.480000000000000000e+02,7.465209999999999582e+02
2.490000000000000000e+02,7.490413200000000415e+02
2.500000000000000000e+02,7.514977400000000216e+02
2.510000000000000000e+02,7.538918499999999767e+02
2.520000000000000000e+02,7.562249799999999595e+02
2.530000000000000000e+02,7.584987800000000107e+02
2.540000000000000000e+02,7.607143600000000561e+02
2.550000000000000000e+02,7.628734699999999975e+02
2.560000000000000000e+02,7.649771700000000010e+02
2.570000000000000000e+02,7.670270400000000564e+02
2.580000000000000000e+02,7.690241700000000264e+02
2.590000000000000000e+02,7.709700299999999515e+02
2.600000000000000000e+02,7.728657200000000103e+02
2.610000000000000000e+02,7.747125200000000405e+02
2.620000000000000000e+02,7.765116000000000440e+02
2.630000000000000000e+02,7.782642200000000230e+02
2.640000000000000000e+02,7.799712500000000546e+02
2.650000000000000000e+02,7.816342799999999897e+02
2.660000000000000000e+02,7.832540900000000192e+02
2.670000000000000000e+02,7.848319099999999935e+02
2.680000000000000000e+02,7.863684100000000399e+02
2.690000000000000000e+02,7.878652299999999968e+02
2.700000000000000000e+02,7.893228100000000040e+02
2.710000000000000000e+02,7.907425500000000511e+02
2.720000000000000000e+02,7.921250000000000000e+02
2.730000000000000000e+02,7.934714400000000296e+02
2.740000000000000000e+02,7.947824699999999893e+02
2.750000000000000000e+02,7.960592699999999695e+02
2.760000000000000000e+02,7.973026099999999587e+02
2.770000000000000000e+02,7.985133100000000468e+02
2.780000000000000000e+02,7.996921399999999949e+02
2.790000000000000000e+02,8.008399699999999939e+02
2.800000000000000000e+02,8.019576399999999694e+02
2.810000000000000000e+02,8.030457800000000361e+02
2.820000000000000000e+02,8.041054100000000062e+02
2.830000000000000000e+02,8.051368400000000065e+02
2.840000000000000000e+02,8.061413599999999633e+02
2.850000000000000000e+02,8.071189600000000155e+02
2.860000000000000000e+02,8.080711700000000519e+02
2.870000000000000000e+02,8.089977400000000216e+02
2.880000000000000000e+02,8.099002699999999777e+02
2.890000000000000000e+02,8.107783200000000079e+02
2.900000000000000000e+02,8.116337300000000141e+02
2.910000000000000000e+02,8.124656999999999698e+02
2.920000000000000000e+02,8.132764300000000048e+02
2.930000000000000000e+02,8.140647599999999784e+02
2.940000000000000000e+02,8.148331299999999828e+02
2.950000000000000000e+02,8.155798999999999523e+02
2.960000000000000000e+02,8.163081100000000561e+02
2.970000000000000000e+02,8.170154999999999745e+02
2.980000000000000000e+02,8.177056900000000041e+02
2.990000000000000000e+02,8.183756100000000515e+02
3.000000000000000000e+02,8.190297900000000482e+02
3.010000000000000000e+02,8.196642500000000382e+02
3.020000000000000000e+02,8.202843000000000302e+02
3.030000000000000000e+02,8.208849500000000035e+02
3.040000000000000000e+02,8.214727199999999812e+02
3.050000000000000000e+02,8.220413200000000415e+02
3.060000000000000000e+02,8.225985100000000330e+02
3.070000000000000000e+02,8.231366600000000062e+02
3.080000000000000000e+02,8.236649200000000519e+02
3.090000000000000000e+02,8.241741899999999532e+02
3.100000000000000000e+02,8.246750500000000557e+02
3.110000000000000000e+02,8.251568600000000515e+02
3.120000000000000000e+02,8.256318400000000111e+02
3.130000000000000000e+02,8.260876500000000533e+02
3.140000000000000000e+02,8.265380199999999604e+02
3.150000000000000000e+02,8.269692400000000134e+02
3.160000000000000000e+02,8.273961799999999585e+02
3.170000000000000000e+02,8.278042599999999993e+02
3.180000000000000000e+02,8.282087999999999965e+02
3.190000000000000000e+02,8.285952800000000025e+02
3.200000000000000000e+02,8.289781500000000278e+02
3.210000000000000000e+02,8.293446000000000140e+02
3.220000000000000000e+02,8.297063000000000557e+02
3.230000000000000000e+02,8.300547500000000127e+02
3.240000000000000000e+02,8.303951399999999694e+02
3.250000000000000000e+02,8.307280899999999519e+02
3.260000000000000000e+02,8.310465100000000120e+02
3.270000000000000000e+02,8.313668800000000374e+02
3.280000000000000000e+02,8.316617999999999711e+02
3.290000000000000000e+02,8.319736900000000333e+02
3.300000000000000000e+02,8.322421900000000505e+02
3.310000000000000000e+02,8.325511500000000069e+02
3.320000000000000000e+02,8.327884500000000116e+02
3.330000000000000000e+02,8.331021700000000010e+02
3.340000000000000000e+02,8.333008399999999938e+02
3.350000000000000000e+02,8.336300700000000461e+02
3.360000000000000000e+02,8.337789900000000216e+02
3.370000000000000000e+02,8.341389799999999468e+02
3.380000000000000000e+02,8.342217399999999543e+02
3.390000000000000000e+02,8.346339699999999766e+02
3.400000000000000000e+02,8.346267100000000028e+02
3.410000000000000000e+02,8.351215799999999945e+02
3.420000000000000000e+02,8.349902299999999968e+02
3.430000000000000000e+02,8.356107200000000148e+02
3.440000000000000000e+02,8.353065800000000536e+02
3.450000000000000000e+02,8.361134600000000319e+02
3.460000000000000000e+02,8.355676899999999705e+02
3.470000000000000000e+02,8.366467900000000100e+02
3.480000000000000000e+02,8.357625100000000202e+02
3.490000000000000000e+02,8.372347999999999502e+02
3.500000000000000000e+02,8.358761600000000271e+02
3.510000000000000000e+02,8.379122899999999845e+02
3.520000000000000000e+02,8.358904400000000123e+02
3.530000000000000000e+02,8.387308299999999690e+02
3.540000000000000000e+02,8.357831999999999653e+02
3.550000000000000000e+02,8.397676400000000285e+02
3.560000000000000000e+02,8.355317400000000134e+02
3.570000000000000000e+02,8.411413000000000011e+02
3.580000000000000000e+02,8.351186500000000024e+02
3.590000000000000000e+02,8.430380199999999604e+02
3.600000000000000000e+02,8.345457800000000361e+02
3.610000000000000000e+02,8.457584200000000010e+02
3.620000000000000000e+02,8.338623700000000554e+02
3.630000000000000000e+02,8.427792399999999589e+02
3.640000000000000000e+02,8.407649499999999989e+02
3.650000000000000000e+02,8.445927100000000110e+02
3.660000000000000000e+02,8.405999799999999595e+02
3.670000000000000000e+02,8.462079499999999825e+02
3.680000000000000000e+02,8.399315800000000536e+02
3.690000000000000000e+02,8.483163500000000568e+02
3.700000000000000000e+02,8.390493800000000419e+02
3.710000000000000000e+02,8.515274699999999939e+02
3.720000000000000000e+02,8.449292599999999993e+02
3.730000000000000000e+02,8.478313000000000557e+02
3.740000000000000000e+02,8.449891999999999825e+02
3.750000000000000000e+02,8.493289800000000014e+02
3.760000000000000000e+02,8.444093599999999924e+02
3.770000000000000000e+02,8.512982799999999770e+02
3.780000000000000000e+02,8.436000400000000354e+02
3.790000000000000000e+02,8.541449599999999691e+02
3.800000000000000000e+02,8.485318600000000515e+02
3.810000000000000000e+02,8.508909300000000258e+02
3.820000000000000000e+02,8.484168100000000550e+02
3.830000000000000000e+02,8.521066299999999956e+02
3.840000000000000000e+02,8.477005000000000337e+02
3.850000000000000000e+02,8.537783200000000079e+02
3.860000000000000000e+02,8.467365099999999529e+02
3.870000000000000000e+02,8.562874799999999595e+02
3.880000000000000000e+02,8.455292399999999589e+02
3.890000000000000000e+02,8.535524299999999585e+02
3.900000000000000000e+02,8.517385299999999688e+02
3.910000000000000000e+02,8.550419900000000553e+02
3.920000000000000000e+02,8.510020799999999781e+02
3.930000000000000000e+02,8.564361000000000104e+02
3.940000000000000000e+02,8.496840200000000323e+02
3.950000000000000000e+02,8.585606099999999969e+02
3.960000000000000000e+02,8.481649200000000519e+02
3.970000000000000000e+02,8.557155800000000454e+02
3.980000000000000000e+02,8.539051500000000487e+02
3.990000000000000000e+02,8.569606899999999996e+02
4.000000000000000000e+02,8.529632599999999911e+02
4.010000000000000000e+02,8.581971999999999525e+02
4.020000000000000000e+02,8.514772900000000391e+02
4.030000000000000000e+02,8.602141699999999673e+02
4.040000000000000000e+02,8.497991899999999532e+02
4.050000000000000000e+02,8.572807599999999866e+02
4.060000000000000000e+02,8.554185199999999440e+02
4.070000000000000000e+02,8.584195600000000468e+02
4.080000000000000000e+02,8.543429599999999482e+02
4.090000000000000000e+02,8.596026000000000522e+02
4.100000000000000000e+02,8.527340100000000120e+02
4.110000000000000000e+02,8.616151700000000346e+02
4.120000000000000000e+02,8.509291399999999612e+02
4.130000000000000000e+02,8.585661599999999680e+02
4.140000000000000000e+02,8.566099199999999882e+02
4.150000000000000000e+02,8.596602799999999434e+02
4.160000000000000000e+02,8.554207199999999602e+02
4.170000000000000000e+02,8.608462500000000546e+02
4.180000000000000000e+02,8.537014199999999846e+02
4.190000000000000000e+02,8.629220000000000255e+02
4.200000000000000000e+02,8.517799099999999726e+02
4.210000000000000000e+02,8.597375500000000557e+02
4.220000000000000000e+02,8.576579000000000406e+02
4.230000000000000000e+02,8.608346599999999853e+02
4.240000000000000000e+02,8.563648100000000341e+02
4.250000000000000000e+02,8.620679900000000089e+02
4.260000000000000000e+02,8.545359499999999571e+02
4.270000000000000000e+02,8.642654999999999745e+02
4.280000000000000000e+02,8.525020799999999781e+02
4.290000000000000000e+02,8.609282799999999725e+02
4.300000000000000000e+02,8.586933000000000220e+02
4.310000000000000000e+02,8.620593900000000076e+02
4.320000000000000000e+02,8.572901600000000144e+02
4.330000000000000000e+02,8.633765899999999647e+02
4.340000000000000000e+02,8.553438099999999622e+02
4.350000000000000000e+02,8.657538500000000568e+02
4.360000000000000000e+02,8.531917099999999436e+02
4.370000000000000000e+02,8.622471299999999701e+02
4.380000000000000000e+02,8.598230600000000550e+02
4.390000000000000000e+02,8.634486699999999928e+02
4.400000000000000000e+02,8.583023100000000341e+02
4.410000000000000000e+02,8.648939800000000560e+02
4.420000000000000000e+02,8.562268100000000004e+02
4.430000000000000000e+02,8.675274699999999939e+02
4.440000000000000000e+02,8.609350600000000213e+02
4.450000000000000000e+02,8.631098600000000260e+02
4.460000000000000000e+02,8.597851600000000190e+02
4.470000000000000000e+02,8.639274299999999585e+02
4.480000000000000000e+02,8.580817899999999554e+02
4.490000000000000000e+02,8.656425799999999526e+02
4.500000000000000000e+02,8.560975300000000061e+02
4.510000000000000000e+02,8.688074299999999539e+02
4.520000000000000000e+02,8.615680499999999711e+02
4.530000000000000000e+02,8.641145000000000209e+02
4.540000000000000000e+02,8.604354200000000219e+02
4.550000000000000000e+02,8.651424600000000282e+02
4.560000000000000000e+02,8.586772499999999582e+02
4.570000000000000000e+02,8.671437399999999798e+02
4.580000000000000000e+02,8.566040000000000418e+02
4.590000000000000000e+02,8.707706899999999450e+02
4.600000000000000000e+02,8.628088999999999942e+02
4.610000000000000000e+02,8.657071499999999560e+02
4.620000000000000000e+02,8.616114499999999907e+02
4.630000000000000000e+02,8.669243199999999661e+02
4.640000000000000000e+02,8.597296099999999797e+02
4.650000000000000000e+02,8.692578099999999495e+02
4.660000000000000000e+02,8.575255700000000161e+02
4.670000000000000000e+02,8.658529099999999517e+02
4.680000000000000000e+02,8.634796800000000303e+02
4.690000000000000000e+02,8.667501200000000381e+02
4.700000000000000000e+02,8.617163699999999835e+02
4.710000000000000000e+02,8.679820600000000468e+02
4.720000000000000000e+02,8.593839699999999766e+02
4.730000000000000000e+02,8.704002699999999777e+02
4.740000000000000000e+02,8.567742899999999509e+02
4.750000000000000000e+02,8.664554399999999532e+02
4.760000000000000000e+02,8.636104100000000017e+02
4.770000000000000000e+02,8.674713699999999790e+02
4.780000000000000000e+02,8.616615600000000086e+02
4.790000000000000000e+02,8.689638099999999667e+02
4.800000000000000000e+02,8.591644300000000385e+02
4.810000000000000000e+02,8.718792099999999436e+02
4.820000000000000000e+02,8.643488200000000461e+02
4.830000000000000000e+02,8.667416399999999612e+02
4.840000000000000000e+02,8.627978500000000395e+02
4.850000000000000000e+02,8.675770899999999983e+02
4.860000000000000000e+02,8.607149699999999939e+02
4.870000000000000000e+02,8.695253300000000536e+02
4.880000000000000000e+02,8.583099399999999832e+02
4.890000000000000000e+02,8.732462799999999561e+02
4.900000000000000000e+02,8.646950100000000248e+02
4.910000000000000000e+02,8.676636399999999867e+02
4.920000000000000000e+02,8.631597299999999677e+02
4.930000000000000000e+02,8.688381299999999783e+02
4.940000000000000000e+02,8.610056799999999839e+02
4.950000000000000000e+02,8.712706899999999450e+02
4.960000000000000000e+02,8.585008500000000140e+02
4.970000000000000000e+02,8.675018900000000031e+02
4.980000000000000000e+02,8.647854599999999436e+02
4.990000000000000000e+02,8.683317299999999932e+02
5.000000000000000000e+02,8.627695899999999938e+02
5.010000000000000000e+02,8.696593599999999924e+02
5.020000000000000000e+02,8.601972700000000032e+02
5.030000000000000000e+02,8.723233599999999797e+02
5.040000000000000000e+02,8.573142699999999650e+02
5.050000000000000000e+02,8.679819300000000339e+02
5.060000000000000000e+02,8.647063600000000179e+02
5.070000000000000000e+02,8.689876699999999801e+02
5.080000000000000000e+02,8.625007900000000518e+02
5.090000000000000000e+02,8.706539900000000216e+02
5.100000000000000000e+02,8.597572599999999738e+02
5.110000000000000000e+02,8.739306599999999889e+02
5.120000000000000000e+02,8.655290499999999838e+02
5.130000000000000000e+02,8.681948899999999867e+02
5.140000000000000000e+02,8.637218000000000302e+02
5.150000000000000000e+02,8.691275000000000546e+02
5.160000000000000000e+02,8.614076499999999896e+02
5.170000000000000000e+02,8.713279999999999745e+02
5.180000000000000000e+02,8.587394399999999450e+02
5.190000000000000000e+02,8.755309399999999869e+02
5.200000000000000000e+02,8.659163200000000415e+02
5.210000000000000000e+02,8.692470700000000079e+02
5.220000000000000000e+02,8.640958299999999781e+02
5.230000000000000000e+02,8.705685399999999845e+02
5.240000000000000000e+02,8.616886600000000271e+02
5.250000000000000000e+02,8.733506499999999733e+02
5.260000000000000000e+02,8.589035599999999704e+02
5.270000000000000000e+02,8.691655899999999519e+02
5.280000000000000000e+02,8.659763199999999870e+02
5.290000000000000000e+02,8.700658600000000433e+02
5.300000000000000000e+02,8.637011099999999715e+02
5.310000000000000000e+02,8.716539299999999457e+02
5.320000000000000000e+02,8.608631599999999935e+02
5.330000000000000000e+02,8.748159200000000055e+02
5.340000000000000000e+02,8.576961700000000519e+02
5.350000000000000000e+02,8.700255100000000539e+02
5.360000000000000000e+02,8.661557599999999866e+02
5.370000000000000000e+02,8.711555200000000241e+02
5.380000000000000000e+02,8.636515500000000429e+02
5.390000000000000000e+02,8.731864000000000487e+02
5.400000000000000000e+02,8.606052899999999681e+02
5.410000000000000000e+02,8.771587500000000546e+02
5.420000000000000000e+02,8.674711899999999787e+02
5.430000000000000000e+02,8.706254300000000512e+02
5.440000000000000000e+02,8.653552899999999681e+02
5.450000000000000000e+02,8.717961400000000367e+02
5.460000000000000000e+02,8.627359599999999773e+02
5.470000000000000000e+02,8.745190400000000182e+02
5.480000000000000000e+02,8.597340699999999742e+02
5.490000000000000000e+02,8.701406200000000126e+02
5.500000000000000000e+02,8.667912000000000035e+02
5.510000000000000000e+02,8.709247400000000425e+02
5.520000000000000000e+02,8.643482099999999946e+02
5.530000000000000000e+02,8.725121500000000196e+02
5.540000000000000000e+02,8.613627900000000182e+02
5.550000000000000000e+02,8.757469499999999698e+02
5.560000000000000000e+02,8.580220900000000483e+02
5.570000000000000000e+02,8.707346800000000258e+02
5.580000000000000000e+02,8.666310999999999467e+02
5.590000000000000000e+02,8.717900399999999763e+02
5.600000000000000000e+02,8.639679599999999482e+02
5.610000000000000000e+02,8.738763400000000274e+02
5.620000000000000000e+02,8.607794800000000350e+02
5.630000000000000000e+02,8.779849199999999882e+02
5.640000000000000000e+02,8.678637099999999691e+02
5.650000000000000000e+02,8.711104100000000017e+02
5.660000000000000000e+02,8.655711700000000519e+02
5.670000000000000000e+02,8.723012099999999691e+02
5.680000000000000000e+02,8.628218399999999519e+02
5.690000000000000000e+02,8.751117600000000039e+02
5.700000000000000000e+02,8.596648599999999760e+02
5.710000000000000000e+02,8.705071400000000494e+02
5.720000000000000000e+02,8.669300500000000511e+02
5.730000000000000000e+02,8.712562299999999595e+02
5.740000000000000000e+02,8.643634600000000319e+02
5.750000000000000000e+02,8.729121099999999842e+02
5.760000000000000000e+02,8.612634900000000471e+02
5.770000000000000000e+02,8.762822300000000268e+02
5.780000000000000000e+02,8.577780800000000454e+02
5.790000000000000000e+02,8.710246600000000399e+02
5.800000000000000000e+02,8.666475199999999859e+02
5.810000000000000000e+02,8.720499300000000176e+02
5.820000000000000000e+02,8.638573000000000093e+02
5.830000000000000000e+02,8.742196699999999510e+02
5.840000000000000000e+02,8.605487100000000282e+02
5.850000000000000000e+02,8.784833399999999983e+02
5.860000000000000000e+02,8.678952000000000453e+02
5.870000000000000000e+02,8.712665399999999636e+02
5.880000000000000000e+02,8.654529999999999745e+02
5.890000000000000000e+02,8.724968900000000076e+02
5.900000000000000000e+02,8.625977199999999812e+02
5.910000000000000000e+02,8.754002699999999777e+02
5.920000000000000000e+02,8.593121300000000247e+02
5.930000000000000000e+02,8.705806900000000041e+02
5.940000000000000000e+02,8.667855799999999817e+02
5.950000000000000000e+02,8.713125000000000000e+02
5.960000000000000000e+02,8.641270100000000411e+02
5.970000000000000000e+02,8.730338699999999790e+02
5.980000000000000000e+02,8.609397599999999784e+02
5.990000000000000000e+02,8.765156899999999496e+02