# Time [s], Temperature [C]
1.000000000000000000e+00,2.500000000000000000e+01
2.000000000000000000e+00,2.500000000000000000e+01
3.000000000000000000e+00,2.500000000000000000e+01
4.000000000000000000e+00,2.500000000000000000e+01
5.000000000000000000e+00,2.500000199999999850e+01
6.000000000000000000e+00,2.500000599999999906e+01
7.000000000000000000e+00,2.500002299999999877e+01
8.000000000000000000e+00,2.500007799999999847e+01
9.000000000000000000e+00,2.500023099999999943e+01
1.000000000000000000e+01,2.500059299999999851e+01
1.100000000000000000e+01,2.500135600000000125e+01
1.200000000000000000e+01,2.500280400000000114e+01
1.300000000000000000e+01,2.500532700000000119e+01
1.400000000000000000e+01,2.500941500000000062e+01
1.500000000000000000e+01,2.501564000000000121e+01
1.600000000000000000e+01,2.502464499999999958e+01
1.700000000000000000e+01,2.503710900000000095e+01
1.800000000000000000e+01,2.505373200000000011e+01
1.900000000000000000e+01,2.507520900000000097e+01
2.000000000000000000e+01,2.510220899999999844e+01
2.100000000000000000e+01,2.513537600000000083e+01
2.200000000000000000e+01,2.517529499999999842e+01
2.300000000000000000e+01,2.522250700000000023e+01
2.400000000000000000e+01,2.527749100000000126e+01
2.500000000000000000e+01,2.534066999999999936e+01
2.600000000000000000e+01,2.541240300000000119e+01
2.700000000000000000e+01,2.549299399999999949e+01
2.800000000000000000e+01,2.558269299999999902e+01
2.900000000000000000e+01,2.568169999999999931e+01
3.000000000000000000e+01,2.579015899999999917e+01
3.100000000000000000e+01,2.590817799999999949e+01
3.200000000000000000e+01,2.603581799999999902e+01
3.300000000000000000e+01,2.617310499999999962e+01
3.400000000000000000e+01,2.632003399999999971e+01
3.500000000000000000e+01,2.647656599999999827e+01
3.600000000000000000e+01,2.664264500000000169e+01
3.700000000000000000e+01,2.681817399999999907e+01
3.800000000000000000e+01,2.700305900000000037e+01
3.900000000000000000e+01,2.719717599999999891e+01
4.000000000000000000e+01,2.740037900000000093e+01
4.100000000000000000e+01,2.761252800000000107e+01
4.200000000000000000e+01,2.783345800000000025e+01
4.300000000000000000e+01,2.806298999999999921e+01
4.400000000000000000e+01,2.830096199999999840e+01
4.500000000000000000e+01,2.854717399999999827e+01
4.600000000000000000e+01,2.880145600000000172e+01
4.700000000000000000e+01,2.906360799999999855e+01
4.800000000000000000e+01,2.933342899999999887e+01
4.900000000000000000e+01,2.961073899999999881e+01
5.000000000000000000e+01,2.989534000000000091e+01
5.100000000000000000e+01,3.018702700000000050e+01
5.200000000000000000e+01,3.048561700000000130e+01
5.300000000000000000e+01,3.079090499999999864e+01
5.400000000000000000e+01,3.110270699999999877e+01
5.500000000000000000e+01,3.142082399999999964e+01
5.600000000000000000e+01,3.174508099999999899e+01
5.700000000000000000e+01,3.207529399999999953e+01
5.800000000000000000e+01,3.241127000000000180e+01
5.900000000000000000e+01,3.275283400000000000e+01
6.000000000000000000e+01,3.309981200000000001e+01
6.100000000000000000e+01,3.345202599999999649e+01
6.200000000000000000e+01,3.380929900000000288e+01
6.300000000000000000e+01,3.417148999999999859e+01
6.400000000000000000e+01,3.453842499999999660e+01
6.500000000000000000e+01,3.490995000000000203e+01
6.600000000000000000e+01,3.528589999999999804e+01
6.700000000000000000e+01,3.566613000000000255e+01
6.800000000000000000e+01,3.605049100000000095e+01
6.900000000000000000e+01,3.643884299999999854e+01
7.000000000000000000e+01,3.683103899999999697e+01
7.100000000000000000e+01,3.722695199999999716e+01
7.200000000000000000e+01,3.762644199999999728e+01
7.300000000000000000e+01,3.802938100000000077e+01
7.400000000000000000e+01,3.843565000000000254e+01
7.500000000000000000e+01,3.884512300000000096e+01
7.600000000000000000e+01,3.925767499999999899e+01
7.700000000000000000e+01,3.967319499999999977e+01
7.800000000000000000e+01,4.009156800000000231e+01
7.900000000000000000e+01,4.051268799999999715e+01
8.000000000000000000e+01,4.093644299999999703e+01
8.100000000000000000e+01,4.136274000000000228e+01
8.200000000000000000e+01,4.179146599999999978e+01
8.300000000000000000e+01,4.222253400000000312e+01
8.400000000000000000e+01,4.265584199999999981e+01
8.500000000000000000e+01,4.309130100000000141e+01
8.600000000000000000e+01,4.352882000000000318e+01
8.700000000000000000e+01,4.396831499999999693e+01
8.800000000000000000e+01,4.440970200000000290e+01
8.900000000000000000e+01,4.485289800000000326e+01
9.000000000000000000e+01,4.529782500000000312e+01
9.100000000000000000e+01,4.574439999999999884e+01
9.200000000000000000e+01,4.619255100000000169e+01
9.300000000000000000e+01,4.664221200000000067e+01
9.400000000000000000e+01,4.709331900000000104e+01
9.500000000000000000e+01,4.754579199999999872e+01
9.600000000000000000e+01,4.799955700000000292e+01
9.700000000000000000e+01,4.845455599999999663e+01
9.800000000000000000e+01,4.891072799999999887e+01
9.900000000000000000e+01,4.936801100000000275e+01
1.000000000000000000e+02,4.982636300000000062e+01
1.010000000000000000e+02,5.028572100000000233e+01
1.020000000000000000e+02,5.074601700000000193e+01
1.030000000000000000e+02,5.120719499999999869e+01
1.040000000000000000e+02,5.166921200000000169e+01
1.050000000000000000e+02,5.213201899999999966e+01
1.060000000000000000e+02,5.259557000000000215e+01
1.070000000000000000e+02,5.305983700000000169e+01
1.080000000000000000e+02,5.352473400000000225e+01
1.090000000000000000e+02,5.399022300000000030e+01
1.100000000000000000e+02,5.445627199999999846e+01
1.110000000000000000e+02,5.492284000000000077e+01
1.120000000000000000e+02,5.538989300000000071e+01
1.130000000000000000e+02,5.585740299999999792e+01
1.140000000000000000e+02,5.632530200000000065e+01
1.150000000000000000e+02,5.679355199999999826e+01
1.160000000000000000e+02,5.726213500000000067e+01
1.170000000000000000e+02,5.773100999999999772e+01
1.180000000000000000e+02,5.820015300000000025e+01
1.190000000000000000e+02,5.866953699999999827e+01
1.200000000000000000e+02,5.913910700000000276e+01
1.210000000000000000e+02,5.960883700000000118e+01
1.220000000000000000e+02,6.007870499999999936e+01
1.230000000000000000e+02,6.054868299999999692e+01
1.240000000000000000e+02,6.101875299999999669e+01
1.250000000000000000e+02,6.148888399999999876e+01
1.260000000000000000e+02,6.195902999999999849e+01
1.270000000000000000e+02,6.242917599999999823e+01
1.280000000000000000e+02,6.289929999999999666e+01
1.290000000000000000e+02,6.336938500000000118e+01
1.300000000000000000e+02,6.383941300000000041e+01
1.310000000000000000e+02,6.430934899999999743e+01
1.320000000000000000e+02,6.477916000000000452e+01
1.330000000000000000e+02,6.524884000000000128e+01
1.340000000000000000e+02,6.571836100000000158e+01
1.350000000000000000e+02,6.618772099999999625e+01
1.360000000000000000e+02,6.665691400000000044e+01
1.370000000000000000e+02,6.712587000000000614e+01
1.380000000000000000e+02,6.759459699999999316e+01
1.390000000000000000e+02,6.806307999999999936e+01
1.400000000000000000e+02,6.853130299999999409e+01
1.410000000000000000e+02,6.899925199999999847e+01
1.420000000000000000e+02,6.946693399999999485e+01
1.430000000000000000e+02,6.993428799999999512e+01
1.440000000000000000e+02,7.040131399999999928e+01
1.450000000000000000e+02,7.086800399999999911e+01
1.460000000000000000e+02,7.133434300000000405e+01
1.470000000000000000e+02,7.180032300000000589e+01
1.480000000000000000e+02,7.226594500000000210e+01
1.490000000000000000e+02,7.273117100000000335e+01
1.500000000000000000e+02,7.319598399999999572e+01
1.510000000000000000e+02,7.366038500000000511e+01
1.520000000000000000e+02,7.412436700000000656e+01
1.530000000000000000e+02,7.458791399999999783e+01
1.540000000000000000e+02,7.505103300000000388e+01
1.550000000000000000e+02,7.551369499999999846e+01
1.560000000000000000e+02,7.597588299999999606e+01
1.570000000000000000e+02,7.643759199999999510e+01
1.580000000000000000e+02,7.689881900000000314e+01
1.590000000000000000e+02,7.735954999999999870e+01
1.600000000000000000e+02,7.781978599999999346e+01
1.610000000000000000e+02,7.827953300000000070e+01
1.620000000000000000e+02,7.873875400000000013e+01
1.630000000000000000e+02,7.919744099999999776e+01
1.640000000000000000e+02,7.965560200000000179e+01
1.650000000000000000e+02,8.011321300000000178e+01
1.660000000000000000e+02,8.057027399999999773e+01
1.670000000000000000e+02,8.102678699999999878e+01
1.680000000000000000e+02,8.148275800000000402e+01
1.690000000000000000e+02,8.193815600000000643e+01
1.700000000000000000e+02,8.239297500000000696e+01
1.710000000000000000e+02,8.284721399999999392e+01
1.720000000000000000e+02,8.330087299999999573e+01
1.730000000000000000e+02,8.375393699999999342e+01
1.740000000000000000e+02,8.420640600000000120e+01
1.750000000000000000e+02,8.465827899999999318e+01
1.760000000000000000e+02,8.510954999999999870e+01
1.770000000000000000e+02,8.556021099999999535e+01
1.780000000000000000e+02,8.601025400000000332e+01
1.790000000000000000e+02,8.645967899999999418e+01
1.800000000000000000e+02,8.690847800000000234e+01
1.810000000000000000e+02,8.735665099999999939e+01
1.820000000000000000e+02,8.780419200000000046e+01
1.830000000000000000e+02,8.825109899999999641e+01
1.840000000000000000e+02,8.869736500000000490e+01
1.850000000000000000e+02,8.914299800000000573e+01
1.860000000000000000e+02,8.958798199999999667e+01
1.870000000000000000e+02,9.003230999999999540e+01
1.880000000000000000e+02,9.047598999999999592e+01
1.890000000000000000e+02,9.091901400000000422e+01
1.900000000000000000e+02,9.136138200000000609e+01
1.910000000000000000e+02,9.180308499999999583e+01
1.920000000000000000e+02,9.224411800000000028e+01
1.930000000000000000e+02,9.268449400000000082e+01
1.940000000000000000e+02,9.312419900000000439e+01
1.950000000000000000e+02,9.356323199999999929e+01
1.960000000000000000e+02,9.400159499999999468e+01
1.970000000000000000e+02,9.443927800000000161e+01
1.980000000000000000e+02,9.487628200000000334e+01
1.990000000000000000e+02,9.531260699999999986e+01
2.000000000000000000e+02,9.574825300000000539e+01
2.010000000000000000e+02,9.618321199999999749e+01
2.020000000000000000e+02,9.661748500000000206e+01
2.030000000000000000e+02,9.705107099999999321e+01
2.040000000000000000e+02,9.748396300000000281e+01
2.050000000000000000e+02,9.791616799999999898e+01
2.060000000000000000e+02,9.834767899999999941e+01
2.070000000000000000e+02,9.877849600000000407e+01
2.080000000000000000e+02,9.920861800000000130e+01
2.090000000000000000e+02,9.963804600000000278e+01
2.100000000000000000e+02,1.000667700000000053e+02
2.110000000000000000e+02,1.004947999999999979e+02
2.120000000000000000e+02,1.009221299999999957e+02
2.130000000000000000e+02,1.013487499999999955e+02
2.140000000000000000e+02,1.017746800000000036e+02
2.150000000000000000e+02,1.021999100000000027e+02
2.160000000000000000e+02,1.026244200000000006e+02
2.170000000000000000e+02,1.030482400000000069e+02
2.180000000000000000e+02,1.034713399999999979e+02
2.190000000000000000e+02,1.038937300000000050e+02
2.200000000000000000e+02,1.043154200000000031e+02
2.210000000000000000e+02,1.047364100000000064e+02
2.220000000000000000e+02,1.051566799999999944e+02
2.230000000000000000e+02,1.055762399999999985e+02
2.240000000000000000e+02,1.059950900000000047e+02
2.250000000000000000e+02,1.064132299999999987e+02
2.260000000000000000e+02,1.068306699999999978e+02
2.270000000000000000e+02,1.072473899999999958e+02
2.280000000000000000e+02,1.076634099999999989e+02
2.290000000000000000e+02,1.080786999999999978e+02
2.300000000000000000e+02,1.084932900000000018e+02
2.310000000000000000e+02,1.089071600000000046e+02
2.320000000000000000e+02,1.093203199999999953e+02
2.330000000000000000e+02,1.097327700000000021e+02
2.340000000000000000e+02,1.101444999999999936e+02
2.350000000000000000e+02,1.105555200000000013e+02
2.360000000000000000e+02,1.109658299999999969e+02
2.370000000000000000e+02,1.113754299999999944e+02
2.380000000000000000e+02,1.117843100000000049e+02
2.390000000000000000e+02,1.121924700000000001e+02
2.400000000000000000e+02,1.125999300000000005e+02
2.410000000000000000e+02,1.130066699999999997e+02
2.420000000000000000e+02,1.134126899999999978e+02
2.430000000000000000e+02,1.138179899999999947e+02
2.440000000000000000e+02,1.142225899999999967e+02
2.450000000000000000e+02,1.146264599999999945e+02
2.460000000000000000e+02,1.150296199999999942e+02
2.470000000000000000e+02,1.154320799999999991e+02
2.480000000000000000e+02,1.158338200000000029e+02
2.490000000000000000e+02,1.162348400000000055e+02
2.500000000000000000e+02,1.166351499999999959e+02
2.510000000000000000e+02,1.170347500000000025e+02
2.520000000000000000e+02,1.174336399999999969e+02
2.530000000000000000e+02,1.178318100000000044e+02
2.540000000000000000e+02,1.182292800000000028e+02
2.550000000000000000e+02,1.186260300000000001e+02
2.560000000000000000e+02,1.190220699999999994e+02
2.570000000000000000e+02,1.194174000000000007e+02
2.580000000000000000e+02,1.198120200000000040e+02
2.590000000000000000e+02,1.202059200000000061e+02
2.600000000000000000e+02,1.205991300000000024e+02
2.610000000000000000e+02,1.209916199999999975e+02
2.620000000000000000e+02,1.213833999999999946e+02
2.630000000000000000e+02,1.217744799999999969e+02
2.640000000000000000e+02,1.221648299999999949e+02
2.650000000000000000e+02,1.225544799999999981e+02
2.660000000000000000e+02,1.229434200000000033e+02
2.670000000000000000e+02,1.233316499999999962e+02
2.680000000000000000e+02,1.237191700000000054e+02
2.690000000000000000e+02,1.241059900000000056e+02
2.700000000000000000e+02,1.244920999999999935e+02
2.710000000000000000e+02,1.248774899999999946e+02
2.720000000000000000e+02,1.252622000000000071e+02
2.730000000000000000e+02,1.256461900000000043e+02
2.740000000000000000e+02,1.260294899999999956e+02
2.750000000000000000e+02,1.264120699999999999e+02
2.760000000000000000e+02,1.267939499999999953e+02
2.770000000000000000e+02,1.271751299999999958e+02
2.780000000000000000e+02,1.275555999999999983e+02
2.790000000000000000e+02,1.279353700000000060e+02
2.800000000000000000e+02,1.283144399999999905e+02
2.810000000000000000e+02,1.286928100000000086e+02
2.820000000000000000e+02,1.290704700000000003e+02
2.830000000000000000e+02,1.294474299999999971e+02
2.840000000000000000e+02,1.298237000000000023e+02
2.850000000000000000e+02,1.301992799999999875e+02
2.860000000000000000e+02,1.305741600000000062e+02
2.870000000000000000e+02,1.309483299999999986e+02
2.880000000000000000e+02,1.313218200000000024e+02
2.890000000000000000e+02,1.316946100000000115e+02
2.900000000000000000e+02,1.320667100000000005e+02
2.910000000000000000e+02,1.324380999999999915e+02
2.920000000000000000e+02,1.328087899999999877e+02
2.930000000000000000e+02,1.331787899999999922e+02
2.940000000000000000e+02,1.335481000000000051e+02
2.950000000000000000e+02,1.339167199999999980e+02
2.960000000000000000e+02,1.342846399999999960e+02
2.970000000000000000e+02,1.346518900000000087e+02
2.980000000000000000e+02,1.350184199999999919e+02
2.990000000000000000e+02,1.353842799999999897e+02
3.000000000000000000e+02,1.357494499999999960e+02
3.010000000000000000e+02,1.361139200000000073e+02
3.020000000000000000e+02,1.364777100000000019e+02
3.030000000000000000e+02,1.368408200000000079e+02
3.040000000000000000e+02,1.372032299999999907e+02
3.050000000000000000e+02,1.375649600000000135e+02
3.060000000000000000e+02,1.379259900000000130e+02
3.070000000000000000e+02,1.382863600000000019e+02
3.080000000000000000e+02,1.386460399999999993e+02
3.090000000000000000e+02,1.390050200000000018e+02
3.100000000000000000e+02,1.393633299999999906e+02
3.110000000000000000e+02,1.397209499999999878e+02
3.120000000000000000e+02,1.400779100000000028e+02
3.130000000000000000e+02,1.404341699999999946e+02
3.140000000000000000e+02,1.407897600000000011e+02
3.150000000000000000e+02,1.411446699999999908e+02
3.160000000000000000e+02,1.414988999999999919e+02
3.170000000000000000e+02,1.418524500000000046e+02
3.180000000000000000e+02,1.422053099999999972e+02
3.190000000000000000e+02,1.425575100000000077e+02
3.200000000000000000e+02,1.429090300000000013e+02
3.210000000000000000e+02,1.432598900000000128e+02
3.220000000000000000e+02,1.436100600000000043e+02
3.230000000000000000e+02,1.439595600000000104e+02
3.240000000000000000e+02,1.443084000000000060e+02
3.250000000000000000e+02,1.446565600000000131e+02
3.260000000000000000e+02,1.450040300000000002e+02
3.270000000000000000e+02,1.453508500000000083e+02
3.280000000000000000e+02,1.456969899999999996e+02
3.290000000000000000e+02,1.460424800000000118e+02
3.300000000000000000e+02,1.463873000000000104e+02
3.310000000000000000e+02,1.467314299999999889e+02
3.320000000000000000e+02,1.470749099999999885e+02
3.330000000000000000e+02,1.474177099999999996e+02
3.340000000000000000e+02,1.477598600000000033e+02
3.350000000000000000e+02,1.481013299999999902e+02
3.360000000000000000e+02,1.484421700000000044e+02
3.370000000000000000e+02,1.487823199999999986e+02
3.380000000000000000e+02,1.491218100000000106e+02
3.390000000000000000e+02,1.494606499999999869e+02
3.400000000000000000e+02,1.497988000000000000e+02
3.410000000000000000e+02,1.501363200000000120e+02
3.420000000000000000e+02,1.504731800000000135e+02
3.430000000000000000e+02,1.508093900000000076e+02
3.440000000000000000e+02,1.511449100000000101e+02
3.450000000000000000e+02,1.514798000000000116e+02
3.460000000000000000e+02,1.518140099999999961e+02
3.470000000000000000e+02,1.521475800000000049e+02
3.480000000000000000e+02,1.524805000000000064e+02
3.490000000000000000e+02,1.528127700000000004e+02
3.500000000000000000e+02,1.531443800000000124e+02
3.510000000000000000e+02,1.534753300000000138e+02
3.520000000000000000e+02,1.538056300000000078e+02
3.530000000000000000e+02,1.541352799999999945e+02
3.540000000000000000e+02,1.544643100000000118e+02
3.550000000000000000e+02,1.547926600000000121e+02
3.560000000000000000e+02,1.551203800000000115e+02
3.570000000000000000e+02,1.554474299999999971e+02
3.580000000000000000e+02,1.557738500000000101e+02
3.590000000000000000e+02,1.560996199999999874e+02
3.600000000000000000e+02,1.564247599999999920e+02
3.610000000000000000e+02,1.567492399999999861e+02
3.620000000000000000e+02,1.570730700000000013e+02
3.630000000000000000e+02,1.573962699999999870e+02
3.640000000000000000e+02,1.577188299999999970e+02
3.650000000000000000e+02,1.580407399999999996e+02
3.660000000000000000e+02,1.583620099999999979e+02
3.670000000000000000e+02,1.586826499999999953e+02
3.680000000000000000e+02,1.590026400000000137e+02
3.690000000000000000e+02,1.593220100000000059e+02
3.700000000000000000e+02,1.596407299999999907e+02
3.710000000000000000e+02,1.599587999999999965e+02
3.720000000000000000e+02,1.602762600000000077e+02
3.730000000000000000e+02,1.605930600000000084e+02
3.740000000000000000e+02,1.609092599999999891e+02
3.750000000000000000e+02,1.612248099999999909e+02
3.760000000000000000e+02,1.615397199999999884e+02
3.770000000000000000e+02,1.618540000000000134e+02
3.780000000000000000e+02,1.621676600000000121e+02
3.790000000000000000e+02,1.624806800000000067e+02
3.800000000000000000e+02,1.627930800000000033e+02
3.810000000000000000e+02,1.631048399999999958e+02
3.820000000000000000e+02,1.634159899999999936e+02
3.830000000000000000e+02,1.637264999999999873e+02
3.840000000000000000e+02,1.640363900000000115e+02
3.850000000000000000e+02,1.643456600000000094e+02
3.860000000000000000e+02,1.646543000000000063e+02
3.870000000000000000e+02,1.649622999999999990e+02
3.880000000000000000e+02,1.652697000000000003e+02
3.890000000000000000e+02,1.655764599999999973e+02
3.900000000000000000e+02,1.658826099999999997e+02
3.910000000000000000e+02,1.661881400000000042e+02
3.920000000000000000e+02,1.664930600000000140e+02
3.930000000000000000e+02,1.667973499999999945e+02
3.940000000000000000e+02,1.671010100000000023e+02
3.950000000000000000e+02,1.674040699999999902e+02
3.960000000000000000e+02,1.677065100000000086e+02
3.970000000000000000e+02,1.680083300000000008e+02
3.980000000000000000e+02,1.683095399999999984e+02
3.990000000000000000e+02,1.686101400000000012e+02
4.000000000000000000e+02,1.689101300000000094e+02
4.010000000000000000e+02,1.692094899999999882e+02
4.020000000000000000e+02,1.695082600000000070e+02
4.030000000000000000e+02,1.698063999999999965e+02
4.040000000000000000e+02,1.701039399999999944e+02
4.050000000000000000e+02,1.704008599999999944e+02
4.060000000000000000e+02,1.706971900000000062e+02
4.070000000000000000e+02,1.709928999999999917e+02
4.080000000000000000e+02,1.712880100000000141e+02
4.090000000000000000e+02,1.715825199999999882e+02
4.100000000000000000e+02,1.718764199999999960e+02
4.110000000000000000e+02,1.721697100000000091e+02
4.120000000000000000e+02,1.724624000000000024e+02
4.130000000000000000e+02,1.727544900000000041e+02
4.140000000000000000e+02,1.730459700000000112e+02
4.150000000000000000e+02,1.733368499999999983e+02
4.160000000000000000e+02,1.736271399999999971e+02
4.170000000000000000e+02,1.739168099999999981e+02
4.180000000000000000e+02,1.742059000000000140e+02
4.190000000000000000e+02,1.744943800000000067e+02
4.200000000000000000e+02,1.747822700000000111e+02
4.210000000000000000e+02,1.750695599999999956e+02
4.220000000000000000e+02,1.753562599999999918e+02
4.230000000000000000e+02,1.756423599999999965e+02
4.240000000000000000e+02,1.759278700000000129e+02
4.250000000000000000e+02,1.762127800000000093e+02
4.260000000000000000e+02,1.764971199999999953e+02
4.270000000000000000e+02,1.767808400000000120e+02
4.280000000000000000e+02,1.770639799999999866e+02
4.290000000000000000e+02,1.773465300000000013e+02
4.300000000000000000e+02,1.776284899999999993e+02
4.310000000000000000e+02,1.779098700000000122e+02
4.320000000000000000e+02,1.781906400000000019e+02
4.330000000000000000e+02,1.784708400000000097e+02
4.340000000000000000e+02,1.787504600000000039e+02
4.350000000000000000e+02,1.790294800000000066e+02
4.360000000000000000e+02,1.793079199999999958e+02
4.370000000000000000e+02,1.795857799999999997e+02
4.380000000000000000e+02,1.798630699999999933e+02
4.390000000000000000e+02,1.801397599999999954e+02
4.400000000000000000e+02,1.804158799999999871e+02
4.410000000000000000e+02,1.806914099999999905e+02
4.420000000000000000e+02,1.809663500000000056e+02
4.430000000000000000e+02,1.812407399999999882e+02
4.440000000000000000e+02,1.815145300000000077e+02
4.450000000000000000e+02,1.817877499999999884e+02
4.460000000000000000e+02,1.820603900000000124e+02
4.470000000000000000e+02,1.823324599999999975e+02
4.480000000000000000e+02,1.826039399999999944e+02
4.490000000000000000e+02,1.828748600000000124e+02
4.500000000000000000e+02,1.831451999999999884e+02
4.510000000000000000e+02,1.834149800000000141e+02
4.520000000000000000e+02,1.836841699999999946e+02
4.530000000000000000e+02,1.839527999999999963e+02
4.540000000000000000e+02,1.842208599999999876e+02
4.550000000000000000e+02,1.844883399999999938e+02
4.560000000000000000e+02,1.847552599999999927e+02
4.570000000000000000e+02,1.850216200000000129e+02
4.580000000000000000e+02,1.852873999999999910e+02
4.590000000000000000e+02,1.855526299999999935e+02
4.600000000000000000e+02,1.858172800000000109e+02
4.610000000000000000e+02,1.860813599999999894e+02
4.620000000000000000e+02,1.863448899999999924e+02
4.630000000000000000e+02,1.866078500000000133e+02
4.640000000000000000e+02,1.868702499999999986e+02
4.650000000000000000e+02,1.871321000000000083e+02
4.660000000000000000e+02,1.873933700000000044e+02
4.670000000000000000e+02,1.876540799999999933e+02
4.680000000000000000e+02,1.879142500000000098e+02
4.690000000000000000e+02,1.881738400000000127e+02
4.700000000000000000e+02,1.884328899999999862e+02
4.710000000000000000e+02,1.886913800000000094e+02
4.720000000000000000e+02,1.889492999999999938e+02
4.730000000000000000e+02,1.892066800000000057e+02
4.740000000000000000e+02,1.894635000000000105e+02
4.750000000000000000e+02,1.897197600000000079e+02
4.760000000000000000e+02,1.899754800000000046e+02
4.770000000000000000e+02,1.902306399999999940e+02
4.780000000000000000e+02,1.904852400000000046e+02
4.790000000000000000e+02,1.907392999999999859e+02
4.800000000000000000e+02,1.909928099999999915e+02
4.810000000000000000e+02,1.912457899999999995e+02
4.820000000000000000e+02,1.914981999999999971e+02
4.830000000000000000e+02,1.917500599999999906e+02
4.840000000000000000e+02,1.920013700000000085e+02
4.850000000000000000e+02,1.922521500000000003e+02
4.860000000000000000e+02,1.925023799999999881e+02
4.870000000000000000e+02,1.927520600000000002e+02
4.880000000000000000e+02,1.930012099999999862e+02
4.890000000000000000e+02,1.932497999999999934e+02
4.900000000000000000e+02,1.934978499999999997e+02
4.910000000000000000e+02,1.937453600000000051e+02
4.920000000000000000e+02,1.939923400000000129e+02
4.930000000000000000e+02,1.942387799999999913e+02
4.940000000000000000e+02,1.944846599999999910e+02
4.950000000000000000e+02,1.947300299999999993e+02
4.960000000000000000e+02,1.949748400000000004e+02
4.970000000000000000e+02,1.952191300000000069e+02
4.980000000000000000e+02,1.954628899999999874e+02
4.990000000000000000e+02,1.957060999999999922e+02
5.000000000000000000e+02,1.959487799999999993e+02
5.010000000000000000e+02,1.961909200000000055e+02
5.020000000000000000e+02,1.964325399999999888e+02
5.030000000000000000e+02,1.966736099999999965e+02
5.040000000000000000e+02,1.969141700000000128e+02
5.050000000000000000e+02,1.971541899999999998e+02
5.060000000000000000e+02,1.973936799999999891e+02
5.070000000000000000e+02,1.976326400000000092e+02
5.080000000000000000e+02,1.978710800000000063e+02
5.090000000000000000e+02,1.981089800000000025e+02
5.100000000000000000e+02,1.983463600000000042e+02
5.110000000000000000e+02,1.985832200000000114e+02
5.120000000000000000e+02,1.988195499999999925e+02
5.130000000000000000e+02,1.990553600000000074e+02
5.140000000000000000e+02,1.992906299999999931e+02
5.150000000000000000e+02,1.995254099999999937e+02
5.160000000000000000e+02,1.997596299999999871e+02
5.170000000000000000e+02,1.999933499999999924e+02
5.180000000000000000e+02,2.002265500000000031e+02
5.190000000000000000e+02,2.004592299999999909e+02
5.200000000000000000e+02,2.006913900000000126e+02
5.210000000000000000e+02,2.009230200000000082e+02
5.220000000000000000e+02,2.011541400000000124e+02
5.230000000000000000e+02,2.013847499999999968e+02
5.240000000000000000e+02,2.016148499999999899e+02
5.250000000000000000e+02,2.018444200000000137e+02
5.260000000000000000e+02,2.020734899999999925e+02
5.270000000000000000e+02,2.023020300000000020e+02
5.280000000000000000e+02,2.025300799999999981e+02
5.290000000000000000e+02,2.027575999999999965e+02
5.300000000000000000e+02,2.029846000000000004e+02
5.310000000000000000e+02,2.032111099999999908e+02
5.320000000000000000e+02,2.034370999999999867e+02
5.330000000000000000e+02,2.036625799999999913e+02
5.340000000000000000e+02,2.038875600000000077e+02
5.350000000000000000e+02,2.041120300000000043e+02
5.360000000000000000e+02,2.043359800000000064e+02
5.370000000000000000e+02,2.045594499999999982e+02
5.380000000000000000e+02,2.047823899999999924e+02
5.390000000000000000e+02,2.050048400000000015e+02
5.400000000000000000e+02,2.052267799999999909e+02
5.410000000000000000e+02,2.054482299999999952e+02
5.420000000000000000e+02,2.056691600000000051e+02
5.430000000000000000e+02,2.058895899999999983e+02
5.440000000000000000e+02,2.061095300000000066e+02
5.450000000000000000e+02,2.063289599999999950e+02
5.460000000000000000e+02,2.065478999999999985e+02
5.470000000000000000e+02,2.067663300000000106e+02
5.480000000000000000e+02,2.069842700000000093e+02
5.490000000000000000e+02,2.072017099999999914e+02
5.500000000000000000e+02,2.074186599999999885e+02
5.510000000000000000e+02,2.076350999999999942e+02
5.520000000000000000e+02,2.078510599999999897e+02
5.530000000000000000e+02,2.080665099999999939e+02
5.540000000000000000e+02,2.082814799999999877e+02
5.550000000000000000e+02,2.084959599999999966e+02
5.560000000000000000e+02,2.087099300000000142e+02
5.570000000000000000e+02,2.089234299999999962e+02
5.580000000000000000e+02,2.091364299999999901e+02
5.590000000000000000e+02,2.093489399999999989e+02
5.600000000000000000e+02,2.095609599999999944e+02
5.610000000000000000e+02,2.097724800000000016e+02
5.620000000000000000e+02,2.099835400000000050e+02
5.630000000000000000e+02,2.101940800000000138e+02
5.640000000000000000e+02,2.104041599999999903e+02
5.650000000000000000e+02,2.106137400000000071e+02
5.660000000000000000e+02,2.108228300000000104e+02
5.670000000000000000e+02,2.110314500000000066e+02
5.680000000000000000e+02,2.112395799999999895e+02
5.690000000000000000e+02,2.114472399999999936e+02
5.700000000000000000e+02,2.116543900000000065e+02
5.710000000000000000e+02,2.118610700000000122e+02
5.720000000000000000e+02,2.120672800000000109e+02
5.730000000000000000e+02,2.122729899999999930e+02
5.740000000000000000e+02,2.124782399999999996e+02
5.750000000000000000e+02,2.126830099999999959e+02
5.760000000000000000e+02,2.128873000000000104e+02
5.770000000000000000e+02,2.130910900000000083e+02
5.780000000000000000e+02,2.132944300000000055e+02
5.790000000000000000e+02,2.134972799999999893e+02
5.800000000000000000e+02,2.136996599999999944e+02
5.810000000000000000e+02,2.139015699999999924e+02
5.820000000000000000e+02,2.141030000000000086e+02
5.830000000000000000e+02,2.143039599999999893e+02
5.840000000000000000e+02,2.145044399999999882e+02
5.850000000000000000e+02,2.147044500000000085e+02
5.860000000000000000e+02,2.149039899999999932e+02
5.870000000000000000e+02,2.151030599999999993e+02
5.880000000000000000e+02,2.153016499999999951e+02
5.890000000000000000e+02,2.154997899999999902e+02
5.900000000000000000e+02,2.156974500000000035e+02
5.910000000000000000e+02,2.158946400000000096e+02
5.920000000000000000e+02,2.160913500000000056e+02
5.930000000000000000e+02,2.162876100000000008e+02
5.940000000000000000e+02,2.164833999999999889e+02
5.950000000000000000e+02,2.166787300000000016e+02
5.960000000000000000e+02,2.168735800000000040e+02
5.970000000000000000e+02,2.170679800000000057e+02
5.980000000000000000e+02,2.172619200000000035e+02
5.990000000000000000e+02,2.174553799999999910e+02