# Time [s], Temperature [C]
1.000000000000000000e+00,2.500000000000000000e+01
2.000000000000000000e+00,2.500000000000000000e+01
3.000000000000000000e+00,2.500000000000000000e+01
4.000000000000000000e+00,2.500000199999999850e+01
5.000000000000000000e+00,2.500000800000000112e+01
6.000000000000000000e+00,2.500003799999999998e+01
7.000000000000000000e+00,2.500015600000000049e+01
8.000000000000000000e+00,2.500053600000000031e+01
9.000000000000000000e+00,2.500156199999999984e+01
1.000000000000000000e+01,2.500397699999999901e+01
1.100000000000000000e+01,2.500901800000000108e+01
1.200000000000000000e+01,2.501853399999999894e+01
1.300000000000000000e+01,2.503502500000000097e+01
1.400000000000000000e+01,2.506161499999999975e+01
1.500000000000000000e+01,2.510196499999999986e+01
1.600000000000000000e+01,2.516012800000000027e+01
1.700000000000000000e+01,2.524040799999999862e+01
1.800000000000000000e+01,2.534720000000000084e+01
1.900000000000000000e+01,2.548486700000000127e+01
2.000000000000000000e+01,2.565759999999999863e+01
2.100000000000000000e+01,2.586937299999999951e+01
2.200000000000000000e+01,2.612381900000000101e+01
2.300000000000000000e+01,2.642424799999999863e+01
2.400000000000000000e+01,2.677356500000000139e+01
2.500000000000000000e+01,2.717429500000000075e+01
2.600000000000000000e+01,2.762855899999999920e+01
2.700000000000000000e+01,2.813811899999999966e+01
2.800000000000000000e+01,2.870437000000000083e+01
2.900000000000000000e+01,2.932830799999999982e+01
3.000000000000000000e+01,3.001069599999999937e+01
3.100000000000000000e+01,3.075191900000000089e+01
3.200000000000000000e+01,3.155210699999999946e+01
3.300000000000000000e+01,3.241114400000000018e+01
3.400000000000000000e+01,3.332869000000000170e+01
3.500000000000000000e+01,3.430420699999999812e+01
3.600000000000000000e+01,3.533686399999999850e+01
3.700000000000000000e+01,3.642581899999999706e+01
3.800000000000000000e+01,3.756992300000000284e+01
3.900000000000000000e+01,3.876793700000000342e+01
4.000000000000000000e+01,4.001848199999999878e+01
4.100000000000000000e+01,4.132007999999999726e+01
4.200000000000000000e+01,4.267116200000000248e+01
4.300000000000000000e+01,4.406996199999999675e+01
4.400000000000000000e+01,4.551485799999999671e+01
4.500000000000000000e+01,4.700394800000000117e+01
4.600000000000000000e+01,4.853544999999999732e+01
4.700000000000000000e+01,5.010753600000000318e+01
4.800000000000000000e+01,5.171829600000000227e+01
4.900000000000000000e+01,5.336584899999999720e+01
5.000000000000000000e+01,5.504838900000000024e+01
5.100000000000000000e+01,5.676393099999999947e+01
5.200000000000000000e+01,5.851074599999999748e+01
5.300000000000000000e+01,6.028714000000000084e+01
5.400000000000000000e+01,6.209125499999999676e+01
5.500000000000000000e+01,6.392156200000000155e+01
5.600000000000000000e+01,6.577629100000000051e+01
5.700000000000000000e+01,6.765402199999999766e+01
5.800000000000000000e+01,6.955321499999999446e+01
5.900000000000000000e+01,7.147241200000000561e+01
6.000000000000000000e+01,7.341021000000000640e+01
6.100000000000000000e+01,7.536541699999999366e+01
6.200000000000000000e+01,7.733679999999999666e+01
6.300000000000000000e+01,7.932312799999999697e+01
6.400000000000000000e+01,8.132328800000000513e+01
6.500000000000000000e+01,8.333618900000000451e+01
6.600000000000000000e+01,8.536084700000000680e+01
6.700000000000000000e+01,8.739630099999999402e+01
6.800000000000000000e+01,8.944167299999999443e+01
6.900000000000000000e+01,9.149614699999999345e+01
7.000000000000000000e+01,9.355882300000000384e+01
7.100000000000000000e+01,9.562893699999999342e+01
7.200000000000000000e+01,9.770578799999999831e+01
7.300000000000000000e+01,9.978875700000000393e+01
7.400000000000000000e+01,1.018772600000000068e+02
7.500000000000000000e+01,1.039704399999999964e+02
7.600000000000000000e+01,1.060678300000000007e+02
7.700000000000000000e+01,1.081689700000000016e+02
7.800000000000000000e+01,1.102733300000000014e+02
7.900000000000000000e+01,1.123815100000000058e+02
8.000000000000000000e+01,1.144911599999999936e+02
8.100000000000000000e+01,1.166024500000000046e+02
8.200000000000000000e+01,1.187150599999999940e+02
8.300000000000000000e+01,1.208285500000000070e+02
8.400000000000000000e+01,1.229426700000000068e+02
8.500000000000000000e+01,1.250571999999999946e+02
8.600000000000000000e+01,1.271718999999999937e+02
8.700000000000000000e+01,1.292865299999999991e+02
8.800000000000000000e+01,1.314010499999999979e+02
8.900000000000000000e+01,1.335152400000000057e+02
9.000000000000000000e+01,1.356288600000000031e+02
9.100000000000000000e+01,1.377417299999999898e+02
9.200000000000000000e+01,1.398536499999999876e+02
9.300000000000000000e+01,1.419643599999999992e+02
9.400000000000000000e+01,1.440734699999999862e+02
9.500000000000000000e+01,1.461808599999999956e+02
9.600000000000000000e+01,1.482863299999999924e+02
9.700000000000000000e+01,1.503894699999999887e+02
9.800000000000000000e+01,1.524901099999999872e+02
9.900000000000000000e+01,1.545880899999999940e+02
1.000000000000000000e+02,1.566833200000000090e+02
1.010000000000000000e+02,1.587753800000000126e+02
1.020000000000000000e+02,1.608641100000000108e+02
1.030000000000000000e+02,1.629493600000000129e+02
1.040000000000000000e+02,1.650309599999999932e+02
1.050000000000000000e+02,1.671087499999999864e+02
1.060000000000000000e+02,1.691825100000000077e+02
1.070000000000000000e+02,1.712520399999999938e+02
1.080000000000000000e+02,1.733172099999999887e+02
1.090000000000000000e+02,1.753778200000000140e+02
1.100000000000000000e+02,1.774337500000000034e+02
1.110000000000000000e+02,1.794847599999999943e+02
1.120000000000000000e+02,1.815306400000000053e+02
1.130000000000000000e+02,1.835713199999999858e+02
1.140000000000000000e+02,1.856065999999999860e+02
1.150000000000000000e+02,1.876362799999999993e+02
1.160000000000000000e+02,1.896601699999999937e+02
1.170000000000000000e+02,1.916781599999999912e+02
1.180000000000000000e+02,1.936900899999999979e+02
1.190000000000000000e+02,1.956957899999999881e+02
1.200000000000000000e+02,1.976950799999999902e+02
1.210000000000000000e+02,1.996899600000000135e+02
1.220000000000000000e+02,2.016768500000000017e+02
1.230000000000000000e+02,2.036565200000000004e+02
1.240000000000000000e+02,2.056291699999999878e+02
1.250000000000000000e+02,2.075946999999999889e+02
1.260000000000000000e+02,2.095531799999999976e+02
1.270000000000000000e+02,2.115045800000000042e+02
1.280000000000000000e+02,2.134487900000000025e+02
1.290000000000000000e+02,2.153856800000000078e+02
1.300000000000000000e+02,2.173150500000000136e+02
1.310000000000000000e+02,2.192366000000000099e+02
1.320000000000000000e+02,2.211499900000000025e+02
1.330000000000000000e+02,2.230548699999999940e+02
1.340000000000000000e+02,2.249510500000000093e+02
1.350000000000000000e+02,2.268383200000000102e+02
1.360000000000000000e+02,2.287163099999999929e+02
1.370000000000000000e+02,2.305847799999999950e+02
1.380000000000000000e+02,2.324436499999999910e+02
1.390000000000000000e+02,2.342925600000000088e+02
1.400000000000000000e+02,2.361312599999999975e+02
1.410000000000000000e+02,2.379596300000000042e+02
1.420000000000000000e+02,2.397773099999999999e+02
1.430000000000000000e+02,2.415841800000000035e+02
1.440000000000000000e+02,2.433798199999999952e+02
1.450000000000000000e+02,2.451640899999999874e+02
1.460000000000000000e+02,2.469365699999999890e+02
1.470000000000000000e+02,2.486970699999999965e+02
1.480000000000000000e+02,2.504451099999999997e+02
1.490000000000000000e+02,2.521804799999999886e+02
1.500000000000000000e+02,2.539028900000000135e+02
1.510000000000000000e+02,2.556117999999999881e+02
1.520000000000000000e+02,2.573069199999999910e+02
1.530000000000000000e+02,2.589878499999999804e+02
1.540000000000000000e+02,2.606542400000000157e+02
1.550000000000000000e+02,2.623055400000000077e+02
1.560000000000000000e+02,2.639414100000000190e+02
1.570000000000000000e+02,2.655613399999999729e+02
1.580000000000000000e+02,2.671648299999999949e+02
1.590000000000000000e+02,2.687514300000000276e+02
1.600000000000000000e+02,2.703213799999999765e+02
1.610000000000000000e+02,2.718730499999999779e+02
1.620000000000000000e+02,2.734068300000000136e+02
1.630000000000000000e+02,2.749228800000000206e+02
1.640000000000000000e+02,2.764210199999999986e+02
1.650000000000000000e+02,2.779006999999999721e+02
1.660000000000000000e+02,2.793609900000000152e+02
1.670000000000000000e+02,2.808009599999999750e+02
1.680000000000000000e+02,2.822195399999999950e+02
1.690000000000000000e+02,2.836157799999999725e+02
1.700000000000000000e+02,2.849890100000000075e+02
1.710000000000000000e+02,2.863386199999999917e+02
1.720000000000000000e+02,2.876639400000000251e+02
1.730000000000000000e+02,2.889645399999999995e+02
1.740000000000000000e+02,2.902399599999999964e+02
1.750000000000000000e+02,2.914897799999999961e+02
1.760000000000000000e+02,2.927136499999999728e+02
1.770000000000000000e+02,2.939113500000000272e+02
1.780000000000000000e+02,2.950825500000000261e+02
1.790000000000000000e+02,2.962270800000000008e+02
1.800000000000000000e+02,2.973447300000000268e+02
1.810000000000000000e+02,2.984353600000000029e+02
1.820000000000000000e+02,2.994989899999999921e+02
1.830000000000000000e+02,3.005355500000000006e+02
1.840000000000000000e+02,3.015451400000000035e+02
1.850000000000000000e+02,3.025278599999999756e+02
1.860000000000000000e+02,3.034839499999999930e+02
1.870000000000000000e+02,3.044136700000000246e+02
1.880000000000000000e+02,3.053173199999999952e+02
1.890000000000000000e+02,3.061953399999999874e+02
1.900000000000000000e+02,3.070481899999999769e+02
1.910000000000000000e+02,3.078967000000000098e+02
1.920000000000000000e+02,3.087136199999999917e+02
1.930000000000000000e+02,3.095069599999999923e+02
1.940000000000000000e+02,3.102785900000000083e+02
1.950000000000000000e+02,3.110283200000000079e+02
1.960000000000000000e+02,3.117560100000000034e+02
1.970000000000000000e+02,3.124617900000000077e+02
1.980000000000000000e+02,3.131464199999999778e+02
1.990000000000000000e+02,3.138108500000000163e+02
2.000000000000000000e+02,3.144562099999999987e+02
2.010000000000000000e+02,3.150837399999999775e+02
2.020000000000000000e+02,3.156946699999999737e+02
2.030000000000000000e+02,3.162901600000000144e+02
2.040000000000000000e+02,3.168713999999999942e+02
2.050000000000000000e+02,3.174394199999999842e+02
2.060000000000000000e+02,3.179953899999999862e+02
2.070000000000000000e+02,3.185402199999999766e+02
2.080000000000000000e+02,3.190749200000000201e+02
2.090000000000000000e+02,3.196004899999999793e+02
2.100000000000000000e+02,3.201177400000000262e+02
2.110000000000000000e+02,3.206275899999999979e+02
2.120000000000000000e+02,3.211309200000000033e+02
2.130000000000000000e+02,3.216284200000000055e+02
2.140000000000000000e+02,3.221209099999999808e+02
2.150000000000000000e+02,3.226091900000000123e+02
2.160000000000000000e+02,3.230938400000000001e+02
2.170000000000000000e+02,3.235755599999999959e+02
2.180000000000000000e+02,3.240549899999999752e+02
2.190000000000000000e+02,3.245326499999999896e+02
2.200000000000000000e+02,3.250819399999999746e+02
2.210000000000000000e+02,3.255969200000000114e+02
2.220000000000000000e+02,3.261003400000000170e+02
2.230000000000000000e+02,3.265971400000000244e+02
2.240000000000000000e+02,3.270880999999999972e+02
2.250000000000000000e+02,3.275750699999999824e+02
2.260000000000000000e+02,3.280597500000000082e+02
2.270000000000000000e+02,3.285439099999999826e+02
2.280000000000000000e+02,3.290289900000000216e+02
2.290000000000000000e+02,3.295160799999999881e+02
2.300000000000000000e+02,3.300058300000000031e+02
2.310000000000000000e+02,3.304988399999999729e+02
2.320000000000000000e+02,3.309956399999999803e+02
2.330000000000000000e+02,3.314965500000000134e+02
2.340000000000000000e+02,3.320019199999999842e+02
2.350000000000000000e+02,3.325120499999999879e+02
2.360000000000000000e+02,3.330273099999999999e+02
2.370000000000000000e+02,3.335477900000000204e+02
2.380000000000000000e+02,3.340737899999999740e+02
2.390000000000000000e+02,3.346056500000000256e+02
2.400000000000000000e+02,3.351434600000000046e+02
2.410000000000000000e+02,3.356875600000000190e+02
2.420000000000000000e+02,3.362380699999999933e+02
2.430000000000000000e+02,3.367953800000000228e+02
2.440000000000000000e+02,3.373595900000000256e+02
2.450000000000000000e+02,3.379310600000000022e+02
2.460000000000000000e+02,3.385100400000000036e+02
2.470000000000000000e+02,3.390967400000000112e+02
2.480000000000000000e+02,3.396913799999999810e+02
2.490000000000000000e+02,3.402943399999999770e+02
2.500000000000000000e+02,3.411242700000000241e+02
2.510000000000000000e+02,3.418191800000000171e+02
2.520000000000000000e+02,3.424717400000000112e+02
2.530000000000000000e+02,3.431184400000000210e+02
2.540000000000000000e+02,3.437652600000000120e+02
2.550000000000000000e+02,3.444189499999999953e+02
2.560000000000000000e+02,3.450833400000000211e+02
2.570000000000000000e+02,3.457596399999999903e+02
2.580000000000000000e+02,3.464487599999999929e+02
2.590000000000000000e+02,3.471513100000000236e+02
2.600000000000000000e+02,3.478677999999999884e+02
2.610000000000000000e+02,3.485984199999999760e+02
2.620000000000000000e+02,3.493434799999999996e+02
2.630000000000000000e+02,3.501035499999999843e+02
2.640000000000000000e+02,3.508790000000000191e+02
2.650000000000000000e+02,3.516703499999999849e+02
2.660000000000000000e+02,3.524782700000000091e+02
2.670000000000000000e+02,3.533033800000000042e+02
2.680000000000000000e+02,3.541462399999999775e+02
2.690000000000000000e+02,3.550079999999999814e+02
2.700000000000000000e+02,3.558890999999999849e+02
2.710000000000000000e+02,3.567904399999999896e+02
2.720000000000000000e+02,3.577133200000000102e+02
2.730000000000000000e+02,3.586584799999999973e+02
2.740000000000000000e+02,3.596273800000000165e+02
2.750000000000000000e+02,3.606205699999999865e+02
2.760000000000000000e+02,3.616398300000000177e+02
2.770000000000000000e+02,3.626862800000000107e+02
2.780000000000000000e+02,3.637618400000000065e+02
2.790000000000000000e+02,3.648677999999999884e+02
2.800000000000000000e+02,3.660059200000000033e+02
2.810000000000000000e+02,3.671779199999999719e+02
2.820000000000000000e+02,3.683859299999999735e+02
2.830000000000000000e+02,3.696321699999999737e+02
2.840000000000000000e+02,3.709190399999999954e+02
2.850000000000000000e+02,3.728118900000000053e+02
2.860000000000000000e+02,3.742879599999999982e+02
2.870000000000000000e+02,3.757005599999999959e+02
2.880000000000000000e+02,3.771632700000000114e+02
2.890000000000000000e+02,3.786883199999999761e+02
2.900000000000000000e+02,3.802792699999999968e+02
2.910000000000000000e+02,3.819377400000000193e+02
2.920000000000000000e+02,3.836687900000000013e+02
2.930000000000000000e+02,3.854748500000000035e+02
2.940000000000000000e+02,3.873625200000000177e+02
2.950000000000000000e+02,3.893356299999999806e+02
2.960000000000000000e+02,3.914015800000000240e+02
2.970000000000000000e+02,3.935668600000000197e+02
2.980000000000000000e+02,3.958393899999999803e+02
2.990000000000000000e+02,3.982271099999999819e+02
3.000000000000000000e+02,4.007392600000000016e+02
3.010000000000000000e+02,4.033850400000000036e+02
3.020000000000000000e+02,4.061752299999999991e+02
3.030000000000000000e+02,4.091202700000000050e+02
3.040000000000000000e+02,4.122310499999999820e+02
3.050000000000000000e+02,4.155184300000000235e+02
3.060000000000000000e+02,4.189935300000000211e+02
3.070000000000000000e+02,4.226654100000000085e+02
3.080000000000000000e+02,4.265419299999999794e+02
3.090000000000000000e+02,4.306265900000000215e+02
3.100000000000000000e+02,4.349188199999999824e+02
3.110000000000000000e+02,4.394100599999999872e+02
3.120000000000000000e+02,4.440829200000000014e+02
3.130000000000000000e+02,4.489067999999999756e+02
3.140000000000000000e+02,4.538380399999999781e+02
3.150000000000000000e+02,4.588193699999999922e+02
3.160000000000000000e+02,4.637848799999999869e+02
3.170000000000000000e+02,4.686685200000000009e+02
3.180000000000000000e+02,4.734149199999999951e+02
3.190000000000000000e+02,4.779897799999999961e+02
3.200000000000000000e+02,4.823808300000000031e+02
3.210000000000000000e+02,4.865929600000000050e+02
3.220000000000000000e+02,4.906404400000000123e+02
3.230000000000000000e+02,4.945401299999999765e+02
3.240000000000000000e+02,4.983086900000000128e+02
3.250000000000000000e+02,5.019598700000000235e+02
3.260000000000000000e+02,5.055057400000000030e+02
3.270000000000000000e+02,5.089560900000000174e+02
3.280000000000000000e+02,5.123189099999999598e+02
3.290000000000000000e+02,5.156008299999999736e+02
3.300000000000000000e+02,5.188077399999999670e+02
3.310000000000000000e+02,5.219440899999999601e+02
3.320000000000000000e+02,5.250142200000000230e+02
3.330000000000000000e+02,5.280215500000000475e+02
3.340000000000000000e+02,5.309691199999999753e+02
3.350000000000000000e+02,5.338596800000000258e+02
3.360000000000000000e+02,5.366953700000000254e+02
3.370000000000000000e+02,5.394784499999999525e+02
3.380000000000000000e+02,5.422106300000000374e+02
3.390000000000000000e+02,5.448936200000000554e+02
3.400000000000000000e+02,5.475289299999999457e+02
3.410000000000000000e+02,5.501177999999999884e+02
3.420000000000000000e+02,5.526614399999999705e+02
3.430000000000000000e+02,5.551608300000000327e+02
3.440000000000000000e+02,5.576173099999999749e+02
3.450000000000000000e+02,5.600316199999999753e+02
3.460000000000000000e+02,5.624046600000000353e+02
3.470000000000000000e+02,5.647373000000000047e+02
3.480000000000000000e+02,5.670303300000000490e+02
3.490000000000000000e+02,5.692844800000000305e+02
3.500000000000000000e+02,5.715006100000000515e+02
3.510000000000000000e+02,5.736791399999999612e+02
3.520000000000000000e+02,5.758208600000000388e+02
3.530000000000000000e+02,5.779264500000000453e+02
3.540000000000000000e+02,5.799963999999999942e+02
3.550000000000000000e+02,5.820314899999999625e+02
3.560000000000000000e+02,5.840321699999999510e+02
3.570000000000000000e+02,5.859990800000000490e+02
3.580000000000000000e+02,5.879326200000000426e+02
3.590000000000000000e+02,5.898334999999999582e+02
3.600000000000000000e+02,5.917021499999999605e+02
3.610000000000000000e+02,5.935391799999999876e+02
3.620000000000000000e+02,5.953450299999999515e+02
3.630000000000000000e+02,5.971202399999999670e+02
3.640000000000000000e+02,5.988652299999999968e+02
3.650000000000000000e+02,6.005805100000000039e+02
3.660000000000000000e+02,6.022666600000000017e+02
3.670000000000000000e+02,6.039239499999999907e+02
3.680000000000000000e+02,6.055529800000000478e+02
3.690000000000000000e+02,6.071541099999999460e+02
3.700000000000000000e+02,6.087279099999999517e+02
3.710000000000000000e+02,6.102747200000000021e+02
3.720000000000000000e+02,6.117950399999999718e+02
3.730000000000000000e+02,6.132893100000000004e+02
3.740000000000000000e+02,6.147578700000000254e+02
3.750000000000000000e+02,6.162011099999999715e+02
3.760000000000000000e+02,6.176195699999999533e+02
3.770000000000000000e+02,6.190136099999999715e+02
3.780000000000000000e+02,6.203834799999999632e+02
3.790000000000000000e+02,6.217297999999999547e+02
3.800000000000000000e+02,6.230528600000000097e+02
3.810000000000000000e+02,6.243529700000000275e+02
3.820000000000000000e+02,6.256305499999999711e+02
3.830000000000000000e+02,6.268860499999999547e+02
3.840000000000000000e+02,6.281197499999999536e+02
3.850000000000000000e+02,6.293320300000000316e+02
3.860000000000000000e+02,6.305231300000000374e+02
3.870000000000000000e+02,6.316935999999999467e+02
3.880000000000000000e+02,6.328436299999999619e+02
3.890000000000000000e+02,6.339736900000000333e+02
3.900000000000000000e+02,6.350839799999999968e+02
3.910000000000000000e+02,6.361748700000000554e+02
3.920000000000000000e+02,6.372467699999999695e+02
3.930000000000000000e+02,6.382998700000000554e+02
3.940000000000000000e+02,6.393345299999999725e+02
3.950000000000000000e+02,6.403511399999999867e+02
3.960000000000000000e+02,6.413498499999999467e+02
3.970000000000000000e+02,6.423311200000000554e+02
3.980000000000000000e+02,6.432951000000000477e+02
3.990000000000000000e+02,6.442421900000000505e+02
4.000000000000000000e+02,6.451726099999999633e+02
4.010000000000000000e+02,6.460866099999999506e+02
4.020000000000000000e+02,6.469846199999999499e+02
4.030000000000000000e+02,6.478667599999999993e+02
4.040000000000000000e+02,6.487333999999999605e+02
4.050000000000000000e+02,6.495847199999999475e+02
4.060000000000000000e+02,6.504210199999999986e+02
4.070000000000000000e+02,6.512425500000000511e+02
4.080000000000000000e+02,6.520495600000000422e+02
4.090000000000000000e+02,6.528422900000000482e+02
4.100000000000000000e+02,6.536210300000000188e+02
4.110000000000000000e+02,6.543859300000000303e+02
4.120000000000000000e+02,6.551373300000000199e+02
4.130000000000000000e+02,6.558753699999999753e+02
4.140000000000000000e+02,6.566003399999999601e+02
4.150000000000000000e+02,6.573125000000000000e+02
4.160000000000000000e+02,6.580119600000000446e+02
4.170000000000000000e+02,6.586990399999999681e+02
4.180000000000000000e+02,6.593738399999999729e+02
4.190000000000000000e+02,6.600367400000000089e+02
4.200000000000000000e+02,6.606878100000000131e+02
4.210000000000000000e+02,6.613272699999999986e+02
4.220000000000000000e+02,6.619554399999999532e+02
4.230000000000000000e+02,6.625723299999999654e+02
4.240000000000000000e+02,6.631782200000000103e+02
4.250000000000000000e+02,6.637733799999999746e+02
4.260000000000000000e+02,6.643578499999999849e+02
4.270000000000000000e+02,6.649319500000000289e+02
4.280000000000000000e+02,6.654957900000000564e+02
4.290000000000000000e+02,6.660494999999999663e+02
4.300000000000000000e+02,6.665933800000000247e+02
4.310000000000000000e+02,6.671275600000000168e+02
4.320000000000000000e+02,6.676521599999999808e+02
4.330000000000000000e+02,6.681673600000000306e+02
4.340000000000000000e+02,6.686733400000000529e+02
4.350000000000000000e+02,6.691702900000000227e+02
4.360000000000000000e+02,6.696583299999999781e+02
4.370000000000000000e+02,6.701376299999999446e+02
4.380000000000000000e+02,6.706083399999999983e+02
4.390000000000000000e+02,6.710705600000000004e+02
4.400000000000000000e+02,6.715245999999999640e+02
4.410000000000000000e+02,6.719704000000000406e+02
4.420000000000000000e+02,6.724082600000000411e+02
4.430000000000000000e+02,6.728382599999999911e+02
4.440000000000000000e+02,6.732604999999999791e+02
4.450000000000000000e+02,6.736751699999999801e+02
4.460000000000000000e+02,6.740824000000000069e+02
4.470000000000000000e+02,6.744823000000000093e+02
4.480000000000000000e+02,6.748750000000000000e+02
4.490000000000000000e+02,6.752606799999999794e+02
4.500000000000000000e+02,6.756394000000000233e+02
4.510000000000000000e+02,6.760112900000000309e+02
4.520000000000000000e+02,6.763765300000000025e+02
4.530000000000000000e+02,6.767351099999999633e+02
4.540000000000000000e+02,6.770873400000000402e+02
4.550000000000000000e+02,6.774331700000000183e+02
4.560000000000000000e+02,6.777727700000000368e+02
4.570000000000000000e+02,6.781062600000000202e+02
4.580000000000000000e+02,6.784337199999999939e+02
4.590000000000000000e+02,6.787553100000000086e+02
4.600000000000000000e+02,6.790710400000000391e+02
4.610000000000000000e+02,6.793811600000000226e+02
4.620000000000000000e+02,6.796856099999999969e+02
4.630000000000000000e+02,6.799846199999999499e+02
4.640000000000000000e+02,6.802781999999999698e+02
4.650000000000000000e+02,6.805664699999999812e+02
4.660000000000000000e+02,6.808495500000000220e+02
4.670000000000000000e+02,6.811275600000000168e+02
4.680000000000000000e+02,6.814005100000000539e+02
4.690000000000000000e+02,6.816685199999999440e+02
4.700000000000000000e+02,6.819316999999999780e+02
4.710000000000000000e+02,6.821901199999999790e+02
4.720000000000000000e+02,6.824438499999999976e+02
4.730000000000000000e+02,6.826929900000000089e+02
4.740000000000000000e+02,6.829376800000000003e+02
4.750000000000000000e+02,6.831779199999999719e+02
4.760000000000000000e+02,6.834137600000000248e+02
4.770000000000000000e+02,6.836453900000000203e+02
4.780000000000000000e+02,6.838727999999999838e+02
4.790000000000000000e+02,6.840960700000000543e+02
4.800000000000000000e+02,6.843153700000000299e+02
4.810000000000000000e+02,6.845306399999999485e+02
4.820000000000000000e+02,6.847420700000000124e+02
4.830000000000000000e+02,6.849495799999999690e+02
4.840000000000000000e+02,6.851533799999999701e+02
4.850000000000000000e+02,6.853535200000000032e+02
4.860000000000000000e+02,6.855499899999999798e+02
4.870000000000000000e+02,6.857429200000000264e+02
4.880000000000000000e+02,6.859323699999999917e+02
4.890000000000000000e+02,6.861183499999999640e+02
4.900000000000000000e+02,6.863009600000000319e+02
4.910000000000000000e+02,6.864802200000000312e+02
4.920000000000000000e+02,6.866563099999999622e+02
4.930000000000000000e+02,6.868291600000000017e+02
4.940000000000000000e+02,6.869989000000000487e+02
4.950000000000000000e+02,6.871655299999999897e+02
4.960000000000000000e+02,6.873291600000000017e+02
4.970000000000000000e+02,6.874898100000000341e+02
4.980000000000000000e+02,6.876475799999999481e+02
4.990000000000000000e+02,6.878024299999999585e+02
5.000000000000000000e+02,6.879544700000000148e+02
5.010000000000000000e+02,6.881038200000000415e+02
5.020000000000000000e+02,6.882503699999999753e+02
5.030000000000000000e+02,6.883942899999999554e+02
5.040000000000000000e+02,6.885356399999999439e+02
5.050000000000000000e+02,6.886743800000000419e+02
5.060000000000000000e+02,6.888106099999999969e+02
5.070000000000000000e+02,6.889443400000000111e+02
5.080000000000000000e+02,6.890756800000000339e+02
5.090000000000000000e+02,6.892045900000000529e+02
5.100000000000000000e+02,6.893311800000000176e+02
5.110000000000000000e+02,6.894555100000000039e+02
5.120000000000000000e+02,6.895775099999999611e+02
5.130000000000000000e+02,6.896973299999999654e+02
5.140000000000000000e+02,6.898150000000000546e+02
5.150000000000000000e+02,6.899304799999999886e+02
5.160000000000000000e+02,6.900438799999999446e+02
5.170000000000000000e+02,6.901552100000000110e+02
5.180000000000000000e+02,6.902645300000000361e+02
5.190000000000000000e+02,6.903718300000000454e+02
5.200000000000000000e+02,6.904772299999999632e+02
5.210000000000000000e+02,6.905806900000000041e+02
5.220000000000000000e+02,6.906822499999999536e+02
5.230000000000000000e+02,6.907819799999999759e+02
5.240000000000000000e+02,6.908798799999999574e+02
5.250000000000000000e+02,6.909760099999999738e+02
5.260000000000000000e+02,6.910703700000000254e+02
5.270000000000000000e+02,6.911630199999999604e+02
5.280000000000000000e+02,6.912540299999999434e+02
5.290000000000000000e+02,6.913433199999999488e+02
5.300000000000000000e+02,6.914310299999999643e+02
5.310000000000000000e+02,6.915171500000000151e+02
5.320000000000000000e+02,6.916016799999999876e+02
5.330000000000000000e+02,6.916846299999999701e+02
5.340000000000000000e+02,6.917661100000000260e+02
5.350000000000000000e+02,6.918461300000000165e+02
5.360000000000000000e+02,6.919246799999999666e+02
5.370000000000000000e+02,6.920017699999999650e+02
5.380000000000000000e+02,6.920775099999999611e+02
5.390000000000000000e+02,6.921517900000000054e+02
5.400000000000000000e+02,6.922247899999999845e+02
5.410000000000000000e+02,6.922964500000000498e+02
5.420000000000000000e+02,6.923667599999999993e+02
5.430000000000000000e+02,6.924358499999999594e+02
5.440000000000000000e+02,6.925036599999999680e+02
5.450000000000000000e+02,6.925701900000000251e+02
5.460000000000000000e+02,6.926355600000000550e+02
5.470000000000000000e+02,6.926997099999999818e+02
5.480000000000000000e+02,6.927626999999999953e+02
5.490000000000000000e+02,6.928245799999999690e+02
5.500000000000000000e+02,6.928852500000000418e+02
5.510000000000000000e+02,6.929448899999999867e+02
5.520000000000000000e+02,6.930034200000000055e+02
5.530000000000000000e+02,6.930608499999999594e+02
5.540000000000000000e+02,6.931173099999999749e+02
5.550000000000000000e+02,6.931726700000000392e+02
5.560000000000000000e+02,6.932270499999999629e+02
5.570000000000000000e+02,6.932803999999999860e+02
5.580000000000000000e+02,6.933328199999999697e+02
5.590000000000000000e+02,6.933842799999999897e+02
5.600000000000000000e+02,6.934348099999999704e+02
5.610000000000000000e+02,6.934844399999999496e+02
5.620000000000000000e+02,6.935330800000000409e+02
5.630000000000000000e+02,6.935809299999999666e+02
5.640000000000000000e+02,6.936278700000000299e+02
5.650000000000000000e+02,6.936739499999999907e+02
5.660000000000000000e+02,6.937191800000000512e+02
5.670000000000000000e+02,6.937635500000000093e+02
5.680000000000000000e+02,6.938071899999999914e+02
5.690000000000000000e+02,6.938499799999999595e+02
5.700000000000000000e+02,6.938920299999999770e+02
5.710000000000000000e+02,6.939332299999999805e+02
5.720000000000000000e+02,6.939737499999999955e+02
5.730000000000000000e+02,6.940135500000000093e+02
5.740000000000000000e+02,6.940525499999999965e+02
5.750000000000000000e+02,6.940908799999999701e+02
5.760000000000000000e+02,6.941285400000000436e+02
5.770000000000000000e+02,6.941654700000000275e+02
5.780000000000000000e+02,6.942017799999999852e+02
5.790000000000000000e+02,6.942373700000000554e+02
5.800000000000000000e+02,6.942723399999999856e+02
5.810000000000000000e+02,6.943066400000000158e+02
5.820000000000000000e+02,6.943403899999999567e+02
5.830000000000000000e+02,6.943734699999999975e+02
5.840000000000000000e+02,6.944059399999999869e+02
5.850000000000000000e+02,6.944378100000000131e+02
5.860000000000000000e+02,6.944691199999999753e+02
5.870000000000000000e+02,6.944998799999999619e+02
5.880000000000000000e+02,6.945300300000000107e+02
5.890000000000000000e+02,6.945596900000000460e+02
5.900000000000000000e+02,6.945887500000000045e+02
5.910000000000000000e+02,6.946173099999999749e+02
5.920000000000000000e+02,6.946453199999999697e+02
5.930000000000000000e+02,6.946728500000000395e+02
5.940000000000000000e+02,6.946998300000000199e+02
5.950000000000000000e+02,6.947263799999999492e+02
5.960000000000000000e+02,6.947523800000000165e+02
5.970000000000000000e+02,6.947779500000000326e+02
5.980000000000000000e+02,6.948030999999999722e+02
5.990000000000000000e+02,6.948277000000000498e+02