# Time [s], Temperature [C]
1.000000000000000000e+00,2.499997099999999861e+01
2.000000000000000000e+00,7.826133699999999749e+01
3.000000000000000000e+00,1.080695599999999956e+02
4.000000000000000000e+00,1.319643199999999865e+02
5.000000000000000000e+00,1.517240299999999991e+02
6.000000000000000000e+00,1.689013099999999952e+02
7.000000000000000000e+00,1.841415700000000015e+02
8.000000000000000000e+00,1.979036700000000053e+02
9.000000000000000000e+00,2.104721499999999992e+02
1.000000000000000000e+01,2.220611600000000010e+02
1.100000000000000000e+01,2.328216199999999958e+02
1.200000000000000000e+01,2.428802799999999991e+02
1.300000000000000000e+01,2.523458100000000002e+02
1.400000000000000000e+01,2.613100900000000024e+02
1.500000000000000000e+01,2.698598600000000260e+02
1.600000000000000000e+01,2.780447399999999902e+02
1.700000000000000000e+01,2.858704799999999864e+02
1.800000000000000000e+01,2.933056599999999889e+02
1.900000000000000000e+01,3.003305100000000039e+02
2.000000000000000000e+01,3.069417100000000005e+02
2.100000000000000000e+01,3.131568300000000136e+02
2.200000000000000000e+01,3.189959999999999809e+02
2.300000000000000000e+01,3.244664599999999837e+02
2.400000000000000000e+01,3.295721399999999903e+02
2.500000000000000000e+01,3.343102999999999838e+02
2.600000000000000000e+01,3.386757799999999747e+02
2.700000000000000000e+01,3.426677900000000250e+02
2.800000000000000000e+01,3.462930600000000254e+02
2.900000000000000000e+01,3.495611599999999726e+02
3.000000000000000000e+01,3.525072900000000118e+02
3.100000000000000000e+01,3.551598799999999869e+02
3.200000000000000000e+01,3.575380900000000111e+02
3.300000000000000000e+01,3.597102399999999989e+02
3.400000000000000000e+01,3.616997999999999820e+02
3.500000000000000000e+01,3.635187399999999798e+02
3.600000000000000000e+01,3.652402000000000157e+02
3.700000000000000000e+01,3.668675799999999754e+02
3.800000000000000000e+01,3.683915999999999826e+02
3.900000000000000000e+01,3.698949900000000071e+02
4.000000000000000000e+01,3.713552599999999870e+02
4.100000000000000000e+01,3.727529299999999921e+02
4.200000000000000000e+01,3.741727599999999825e+02
4.300000000000000000e+01,3.755837999999999965e+02
4.400000000000000000e+01,3.769513499999999908e+02
4.500000000000000000e+01,3.783714600000000132e+02
4.600000000000000000e+01,3.798027599999999779e+02
4.700000000000000000e+01,3.811973600000000033e+02
4.800000000000000000e+01,3.826710499999999797e+02
4.900000000000000000e+01,3.841590299999999729e+02
5.000000000000000000e+01,3.856277499999999918e+02
5.100000000000000000e+01,3.871739499999999907e+02
5.200000000000000000e+01,3.887447799999999916e+02
5.300000000000000000e+01,3.902890600000000063e+02
5.400000000000000000e+01,3.919156800000000089e+02
5.500000000000000000e+01,3.935527999999999906e+02
5.600000000000000000e+01,3.951574100000000271e+02
5.700000000000000000e+01,3.968178700000000276e+02
5.800000000000000000e+01,3.984584399999999960e+02
5.900000000000000000e+01,4.000576500000000237e+02
6.000000000000000000e+01,4.016528599999999756e+02
6.100000000000000000e+01,4.032067299999999932e+02
6.200000000000000000e+01,4.046866499999999860e+02
6.300000000000000000e+01,4.061163599999999860e+02
6.400000000000000000e+01,4.074806199999999876e+02
6.500000000000000000e+01,4.087706299999999828e+02
6.600000000000000000e+01,4.100073199999999929e+02
6.700000000000000000e+01,4.111973899999999844e+02
6.800000000000000000e+01,4.123418899999999780e+02
6.900000000000000000e+01,4.134685099999999807e+02
7.000000000000000000e+01,4.145794399999999769e+02
7.100000000000000000e+01,4.156909499999999866e+02
7.200000000000000000e+01,4.168169899999999757e+02
7.300000000000000000e+01,4.179554699999999912e+02
7.400000000000000000e+01,4.191245400000000245e+02
7.500000000000000000e+01,4.203061500000000024e+02
7.600000000000000000e+01,4.171714799999999741e+02
7.700000000000000000e+01,4.120999100000000226e+02
7.800000000000000000e+01,4.136722399999999880e+02
7.900000000000000000e+01,4.150192599999999743e+02
8.000000000000000000e+01,4.165948200000000270e+02
8.100000000000000000e+01,4.180407400000000280e+02
8.200000000000000000e+01,4.194055500000000052e+02
8.300000000000000000e+01,4.206579899999999839e+02
8.400000000000000000e+01,4.218357500000000186e+02
8.500000000000000000e+01,4.229648099999999999e+02
8.600000000000000000e+01,4.240765700000000038e+02
8.700000000000000000e+01,4.251788599999999860e+02
8.800000000000000000e+01,4.262911399999999844e+02
8.900000000000000000e+01,4.274229399999999828e+02
9.000000000000000000e+01,4.285828200000000265e+02
9.100000000000000000e+01,4.297670299999999770e+02
9.200000000000000000e+01,4.309774499999999762e+02
9.300000000000000000e+01,4.322110900000000129e+02
9.400000000000000000e+01,4.334627699999999777e+02
9.500000000000000000e+01,4.347291299999999978e+02
9.600000000000000000e+01,4.359955100000000243e+02
9.700000000000000000e+01,4.372551300000000083e+02
9.800000000000000000e+01,4.384992700000000241e+02
9.900000000000000000e+01,4.397214399999999728e+02
1.000000000000000000e+02,4.409070699999999761e+02
1.010000000000000000e+02,4.420627700000000004e+02
1.020000000000000000e+02,4.431816999999999780e+02
1.030000000000000000e+02,4.442564399999999978e+02
1.040000000000000000e+02,4.452998699999999985e+02
1.050000000000000000e+02,4.463154000000000110e+02
1.060000000000000000e+02,4.473063999999999965e+02
1.070000000000000000e+02,4.482762099999999919e+02
1.080000000000000000e+02,4.492367199999999912e+02
1.090000000000000000e+02,4.501915599999999813e+02
1.100000000000000000e+02,4.511467299999999909e+02
1.110000000000000000e+02,4.521048900000000117e+02
1.120000000000000000e+02,4.530658900000000244e+02
1.130000000000000000e+02,4.540369900000000030e+02
1.140000000000000000e+02,4.550145299999999793e+02
1.150000000000000000e+02,4.559995700000000056e+02
1.160000000000000000e+02,4.569875799999999799e+02
1.170000000000000000e+02,4.579739700000000084e+02
1.180000000000000000e+02,4.589618800000000078e+02
1.190000000000000000e+02,4.589533700000000067e+02
1.200000000000000000e+02,4.595345800000000054e+02
1.210000000000000000e+02,4.600362200000000144e+02
1.220000000000000000e+02,4.606669299999999794e+02
1.230000000000000000e+02,4.613861699999999928e+02
1.240000000000000000e+02,4.621514900000000239e+02
1.250000000000000000e+02,4.629644499999999994e+02
1.260000000000000000e+02,4.638158300000000054e+02
1.270000000000000000e+02,4.646975699999999847e+02
1.280000000000000000e+02,4.656065699999999765e+02
1.290000000000000000e+02,4.665466900000000123e+02
1.300000000000000000e+02,4.675049700000000144e+02
1.310000000000000000e+02,4.684769299999999816e+02
1.320000000000000000e+02,4.694606299999999806e+02
1.330000000000000000e+02,4.704458000000000197e+02
1.340000000000000000e+02,4.714319499999999721e+02
1.350000000000000000e+02,4.724102800000000002e+02
1.360000000000000000e+02,4.733774700000000166e+02
1.370000000000000000e+02,4.743295299999999770e+02
1.380000000000000000e+02,4.752596399999999903e+02
1.390000000000000000e+02,4.761713599999999929e+02
1.400000000000000000e+02,4.770659200000000055e+02
1.410000000000000000e+02,4.779364600000000110e+02
1.420000000000000000e+02,4.787941599999999767e+02
1.430000000000000000e+02,4.796332100000000196e+02
1.440000000000000000e+02,4.804618199999999888e+02
1.450000000000000000e+02,4.812810400000000186e+02
1.460000000000000000e+02,4.820891100000000051e+02
1.470000000000000000e+02,4.828942000000000121e+02
1.480000000000000000e+02,4.836936000000000035e+02
1.490000000000000000e+02,4.844935600000000022e+02
1.500000000000000000e+02,4.852934900000000198e+02
1.510000000000000000e+02,4.860901499999999942e+02
1.520000000000000000e+02,4.868884300000000280e+02
1.530000000000000000e+02,4.876865199999999732e+02
1.540000000000000000e+02,4.884833100000000172e+02
1.550000000000000000e+02,4.892741399999999885e+02
1.560000000000000000e+02,4.900631399999999758e+02
1.570000000000000000e+02,4.908478999999999814e+02
1.580000000000000000e+02,4.914995999999999867e+02
1.590000000000000000e+02,4.920457799999999793e+02
1.600000000000000000e+02,4.926299099999999953e+02
1.610000000000000000e+02,4.931719100000000253e+02
1.620000000000000000e+02,4.937269600000000196e+02
1.630000000000000000e+02,4.943190900000000170e+02
1.640000000000000000e+02,4.949435100000000034e+02
1.650000000000000000e+02,4.956010999999999740e+02
1.660000000000000000e+02,4.962889999999999873e+02
1.670000000000000000e+02,4.969980499999999779e+02
1.680000000000000000e+02,4.977239700000000084e+02
1.690000000000000000e+02,4.984574000000000069e+02
1.700000000000000000e+02,4.992010200000000282e+02
1.710000000000000000e+02,4.999438200000000165e+02
1.720000000000000000e+02,5.006847799999999893e+02
1.730000000000000000e+02,5.014214499999999930e+02
1.740000000000000000e+02,5.021511499999999728e+02
1.750000000000000000e+02,5.028730199999999968e+02
1.760000000000000000e+02,5.035871599999999830e+02
1.770000000000000000e+02,5.042932099999999878e+02
1.780000000000000000e+02,5.049927700000000073e+02
1.790000000000000000e+02,5.056873199999999997e+02
1.800000000000000000e+02,5.063765000000000214e+02
1.810000000000000000e+02,5.070625000000000000e+02
1.820000000000000000e+02,5.077428600000000074e+02
1.830000000000000000e+02,5.084205600000000231e+02
1.840000000000000000e+02,5.090972300000000246e+02
1.850000000000000000e+02,5.097692900000000122e+02
1.860000000000000000e+02,5.104408599999999865e+02
1.870000000000000000e+02,5.111093399999999747e+02
1.880000000000000000e+02,5.117726400000000240e+02
1.890000000000000000e+02,5.124311500000000024e+02
1.900000000000000000e+02,5.130676300000000083e+02
1.910000000000000000e+02,5.136567999999999756e+02
1.920000000000000000e+02,5.142138099999999667e+02
1.930000000000000000e+02,5.147580000000000382e+02
1.940000000000000000e+02,5.152861900000000333e+02
1.950000000000000000e+02,5.158141500000000406e+02
1.960000000000000000e+02,5.163487499999999955e+02
1.970000000000000000e+02,5.168959399999999960e+02
1.980000000000000000e+02,5.174501999999999953e+02
1.990000000000000000e+02,5.180156200000000126e+02
2.000000000000000000e+02,5.185900299999999561e+02
2.010000000000000000e+02,5.191695600000000468e+02
2.020000000000000000e+02,5.197518300000000409e+02
2.030000000000000000e+02,5.203372799999999643e+02
2.040000000000000000e+02,5.209227899999999636e+02
2.050000000000000000e+02,5.215049999999999955e+02
2.060000000000000000e+02,5.220898399999999810e+02
2.070000000000000000e+02,5.226679100000000062e+02
2.080000000000000000e+02,5.232442600000000539e+02
2.090000000000000000e+02,5.238156699999999546e+02
2.100000000000000000e+02,5.243881199999999581e+02
2.110000000000000000e+02,5.249540399999999636e+02
2.120000000000000000e+02,5.255216699999999719e+02
2.130000000000000000e+02,5.260840500000000475e+02
2.140000000000000000e+02,5.266423300000000154e+02
2.150000000000000000e+02,5.272031200000000126e+02
2.160000000000000000e+02,5.277565899999999601e+02
2.170000000000000000e+02,5.283081700000000183e+02
2.180000000000000000e+02,5.288375899999999774e+02
2.190000000000000000e+02,5.293565700000000334e+02
2.200000000000000000e+02,5.298719499999999698e+02
2.210000000000000000e+02,5.303706700000000183e+02
2.220000000000000000e+02,5.308586999999999989e+02
2.230000000000000000e+02,5.313395400000000564e+02
2.240000000000000000e+02,5.318142699999999650e+02
2.250000000000000000e+02,5.322899800000000141e+02
2.260000000000000000e+02,5.327643399999999474e+02
2.270000000000000000e+02,5.332413900000000240e+02
2.280000000000000000e+02,5.337216200000000299e+02
2.290000000000000000e+02,5.342011700000000474e+02
2.300000000000000000e+02,5.346848099999999704e+02
2.310000000000000000e+02,5.351670500000000175e+02
2.320000000000000000e+02,5.356502100000000155e+02
2.330000000000000000e+02,5.361348900000000413e+02
2.340000000000000000e+02,5.366160899999999856e+02
2.350000000000000000e+02,5.370982099999999946e+02
2.360000000000000000e+02,5.375773900000000367e+02
2.370000000000000000e+02,5.380556599999999889e+02
2.380000000000000000e+02,5.385337500000000546e+02
2.390000000000000000e+02,5.390081199999999626e+02
2.400000000000000000e+02,5.394825399999999718e+02
2.410000000000000000e+02,5.399533099999999877e+02
2.420000000000000000e+02,5.404232200000000148e+02
2.430000000000000000e+02,5.408924600000000282e+02
2.440000000000000000e+02,5.413573000000000093e+02
2.450000000000000000e+02,5.418227500000000418e+02
2.460000000000000000e+02,5.422865600000000086e+02
2.470000000000000000e+02,5.427462199999999939e+02
2.480000000000000000e+02,5.432045299999999770e+02
2.490000000000000000e+02,5.436688799999999446e+02
2.500000000000000000e+02,5.441267100000000028e+02
2.510000000000000000e+02,5.445766599999999471e+02
2.520000000000000000e+02,5.450186200000000554e+02
2.530000000000000000e+02,5.454493999999999687e+02
2.540000000000000000e+02,5.458748199999999997e+02
2.550000000000000000e+02,5.462947400000000471e+02
2.560000000000000000e+02,5.467092300000000478e+02
2.570000000000000000e+02,5.471212199999999939e+02
2.580000000000000000e+02,5.475321699999999510e+02
2.590000000000000000e+02,5.479422600000000330e+02
2.600000000000000000e+02,5.483529099999999517e+02
2.610000000000000000e+02,5.487626299999999446e+02
2.620000000000000000e+02,5.491696799999999712e+02
2.630000000000000000e+02,5.495792800000000398e+02
2.640000000000000000e+02,5.499887700000000450e+02
2.650000000000000000e+02,5.503980699999999615e+02
2.660000000000000000e+02,5.508078000000000429e+02
2.670000000000000000e+02,5.512148999999999432e+02
2.680000000000000000e+02,5.516240800000000490e+02
2.690000000000000000e+02,5.520335099999999784e+02
2.700000000000000000e+02,5.524423199999999952e+02
2.710000000000000000e+02,5.528515599999999495e+02
2.720000000000000000e+02,5.532606799999999794e+02
2.730000000000000000e+02,5.536669900000000553e+02
2.740000000000000000e+02,5.540743999999999687e+02
2.750000000000000000e+02,5.544821200000000090e+02
2.760000000000000000e+02,5.548899499999999989e+02
2.770000000000000000e+02,5.552970599999999877e+02
2.780000000000000000e+02,5.557017799999999852e+02
2.790000000000000000e+02,5.561078499999999849e+02
2.800000000000000000e+02,5.565134299999999712e+02
2.810000000000000000e+02,5.569187600000000202e+02
2.820000000000000000e+02,5.573241600000000062e+02
2.830000000000000000e+02,5.577176500000000487e+02
2.840000000000000000e+02,5.581113900000000285e+02
2.850000000000000000e+02,5.585126999999999953e+02
2.860000000000000000e+02,5.589121099999999842e+02
2.870000000000000000e+02,5.593100600000000213e+02
2.880000000000000000e+02,5.597064199999999801e+02
2.890000000000000000e+02,5.601008900000000494e+02
2.900000000000000000e+02,5.604922500000000127e+02
2.910000000000000000e+02,5.608846999999999525e+02
2.920000000000000000e+02,5.612775900000000320e+02
2.930000000000000000e+02,5.616711999999999989e+02
2.940000000000000000e+02,5.620653700000000299e+02
2.950000000000000000e+02,5.624613000000000511e+02
2.960000000000000000e+02,5.628590699999999742e+02
2.970000000000000000e+02,5.632564099999999598e+02
2.980000000000000000e+02,5.636575900000000274e+02
2.990000000000000000e+02,5.640618299999999863e+02
3.000000000000000000e+02,5.644692400000000134e+02
3.010000000000000000e+02,5.648792700000000195e+02
3.020000000000000000e+02,5.652907699999999522e+02
3.030000000000000000e+02,5.657074599999999691e+02
3.040000000000000000e+02,5.661279899999999543e+02
3.050000000000000000e+02,5.665530400000000100e+02
3.060000000000000000e+02,5.669801599999999553e+02
3.070000000000000000e+02,5.674130199999999604e+02
3.080000000000000000e+02,5.678507700000000114e+02
3.090000000000000000e+02,5.682949200000000474e+02
3.100000000000000000e+02,5.687424300000000130e+02
3.110000000000000000e+02,5.691978100000000040e+02
3.120000000000000000e+02,5.696602199999999812e+02
3.130000000000000000e+02,5.701274399999999787e+02
3.140000000000000000e+02,5.706043100000000550e+02
3.150000000000000000e+02,5.710889300000000048e+02
3.160000000000000000e+02,5.715816700000000310e+02
3.170000000000000000e+02,5.720857499999999618e+02
3.180000000000000000e+02,5.725990000000000464e+02
3.190000000000000000e+02,5.731236000000000104e+02
3.200000000000000000e+02,5.736602799999999434e+02
3.210000000000000000e+02,5.742083099999999831e+02
3.220000000000000000e+02,5.747704499999999825e+02
3.230000000000000000e+02,5.753466799999999921e+02
3.240000000000000000e+02,5.759357899999999972e+02
3.250000000000000000e+02,5.765398599999999760e+02
3.260000000000000000e+02,5.771583299999999781e+02
3.270000000000000000e+02,5.777886399999999867e+02
3.280000000000000000e+02,5.784326200000000426e+02
3.290000000000000000e+02,5.790900299999999561e+02
3.300000000000000000e+02,5.797575699999999870e+02
3.310000000000000000e+02,5.804368299999999863e+02
3.320000000000000000e+02,5.811272000000000162e+02
3.330000000000000000e+02,5.818253200000000334e+02
3.340000000000000000e+02,5.825326499999999896e+02
3.350000000000000000e+02,5.832476199999999835e+02
3.360000000000000000e+02,5.839694200000000137e+02
3.370000000000000000e+02,5.846958600000000388e+02
3.380000000000000000e+02,5.854284099999999853e+02
3.390000000000000000e+02,5.861647299999999632e+02
3.400000000000000000e+02,5.869027700000000323e+02
3.410000000000000000e+02,5.876461199999999963e+02
3.420000000000000000e+02,5.883903199999999742e+02
3.430000000000000000e+02,5.891367800000000443e+02
3.440000000000000000e+02,5.898848900000000413e+02
3.450000000000000000e+02,5.906318400000000111e+02
3.460000000000000000e+02,5.913798199999999952e+02
3.470000000000000000e+02,5.921282999999999674e+02
3.480000000000000000e+02,5.928756700000000137e+02
3.490000000000000000e+02,5.936227400000000216e+02
3.500000000000000000e+02,5.943680399999999509e+02
3.510000000000000000e+02,5.951102899999999636e+02
3.520000000000000000e+02,5.958512600000000248e+02
3.530000000000000000e+02,5.965909400000000460e+02
3.540000000000000000e+02,5.973277000000000498e+02
3.550000000000000000e+02,5.980618899999999485e+02
3.560000000000000000e+02,5.987937600000000202e+02
3.570000000000000000e+02,5.995216100000000097e+02
3.580000000000000000e+02,6.002459700000000566e+02
3.590000000000000000e+02,6.009682000000000244e+02
3.600000000000000000e+02,6.016863399999999729e+02
3.610000000000000000e+02,6.024007599999999911e+02
3.620000000000000000e+02,6.031128499999999804e+02
3.630000000000000000e+02,6.038194600000000491e+02
3.640000000000000000e+02,6.045223999999999478e+02
3.650000000000000000e+02,6.052223500000000058e+02
3.660000000000000000e+02,6.059179100000000062e+02
3.670000000000000000e+02,6.066081500000000233e+02
3.680000000000000000e+02,6.072957199999999602e+02
3.690000000000000000e+02,6.079785200000000032e+02
3.700000000000000000e+02,6.086571000000000140e+02
3.710000000000000000e+02,6.093309900000000425e+02
3.720000000000000000e+02,6.100007299999999759e+02
3.730000000000000000e+02,6.106663200000000415e+02
3.740000000000000000e+02,6.113270300000000361e+02
3.750000000000000000e+02,6.119831500000000233e+02
3.760000000000000000e+02,6.126353800000000547e+02
3.770000000000000000e+02,6.132828399999999647e+02
3.780000000000000000e+02,6.139258999999999560e+02
3.790000000000000000e+02,6.145646400000000540e+02
3.800000000000000000e+02,6.152001299999999446e+02
3.810000000000000000e+02,6.158301999999999907e+02
3.820000000000000000e+02,6.164554399999999532e+02
3.830000000000000000e+02,6.170759299999999712e+02
3.840000000000000000e+02,6.176923799999999574e+02
3.850000000000000000e+02,6.183044999999999618e+02
3.860000000000000000e+02,6.189128399999999601e+02
3.870000000000000000e+02,6.195152000000000498e+02
3.880000000000000000e+02,6.201138300000000072e+02
3.890000000000000000e+02,6.207088599999999587e+02
3.900000000000000000e+02,6.212988900000000285e+02
3.910000000000000000e+02,6.218833600000000388e+02
3.920000000000000000e+02,6.224650299999999561e+02
3.930000000000000000e+02,6.230422999999999547e+02
3.940000000000000000e+02,6.236148699999999963e+02
3.950000000000000000e+02,6.241828600000000051e+02
3.960000000000000000e+02,6.247477400000000216e+02
3.970000000000000000e+02,6.253067600000000539e+02
3.980000000000000000e+02,6.258618199999999661e+02
3.990000000000000000e+02,6.264135700000000497e+02
4.000000000000000000e+02,6.269596599999999853e+02
4.010000000000000000e+02,6.275039699999999812e+02
4.020000000000000000e+02,6.280419900000000553e+02
4.030000000000000000e+02,6.285753799999999956e+02
4.040000000000000000e+02,6.291071200000000090e+02
4.050000000000000000e+02,6.296330600000000004e+02
4.060000000000000000e+02,6.301552100000000110e+02
4.070000000000000000e+02,6.306735800000000154e+02
4.080000000000000000e+02,6.311878100000000131e+02
4.090000000000000000e+02,6.316970199999999522e+02
4.100000000000000000e+02,6.322041600000000017e+02
4.110000000000000000e+02,6.327056300000000419e+02
4.120000000000000000e+02,6.332039800000000014e+02
4.130000000000000000e+02,6.336979400000000169e+02
4.140000000000000000e+02,6.341889599999999518e+02
4.150000000000000000e+02,6.346756599999999935e+02
4.160000000000000000e+02,6.351583299999999781e+02
4.170000000000000000e+02,6.356372099999999818e+02
4.180000000000000000e+02,6.361119999999999663e+02
4.190000000000000000e+02,6.365838599999999587e+02
4.200000000000000000e+02,6.370516999999999825e+02
4.210000000000000000e+02,6.375148299999999608e+02
4.220000000000000000e+02,6.379753399999999601e+02
4.230000000000000000e+02,6.384324299999999539e+02
4.240000000000000000e+02,6.388845199999999522e+02
4.250000000000000000e+02,6.393343499999999722e+02
4.260000000000000000e+02,6.397801500000000487e+02
4.270000000000000000e+02,6.402214400000000296e+02
4.280000000000000000e+02,6.406603999999999814e+02
4.290000000000000000e+02,6.410954000000000406e+02
4.300000000000000000e+02,6.415268600000000561e+02
4.310000000000000000e+02,6.419550799999999526e+02
4.320000000000000000e+02,6.423796399999999949e+02
4.330000000000000000e+02,6.428007800000000316e+02
4.340000000000000000e+02,6.432189300000000003e+02
4.350000000000000000e+02,6.436326299999999492e+02
4.360000000000000000e+02,6.440433299999999690e+02
4.370000000000000000e+02,6.444513500000000477e+02
4.380000000000000000e+02,6.448556499999999687e+02
4.390000000000000000e+02,6.452564700000000357e+02
4.400000000000000000e+02,6.456541099999999460e+02
4.410000000000000000e+02,6.460485200000000532e+02
4.420000000000000000e+02,6.464395100000000411e+02
4.430000000000000000e+02,6.468281899999999496e+02
4.440000000000000000e+02,6.472132599999999911e+02
4.450000000000000000e+02,6.475949699999999893e+02
4.460000000000000000e+02,6.479739399999999705e+02
4.470000000000000000e+02,6.483495500000000220e+02
4.480000000000000000e+02,6.487213699999999790e+02
4.490000000000000000e+02,6.490910000000000082e+02
4.500000000000000000e+02,6.494571499999999560e+02
4.510000000000000000e+02,6.498203099999999495e+02
4.520000000000000000e+02,6.501809700000000021e+02
4.530000000000000000e+02,6.505377799999999979e+02
4.540000000000000000e+02,6.508919700000000148e+02
4.550000000000000000e+02,6.512436500000000024e+02
4.560000000000000000e+02,6.515921600000000353e+02
4.570000000000000000e+02,6.519376800000000003e+02
4.580000000000000000e+02,6.522809399999999869e+02
4.590000000000000000e+02,6.526209099999999808e+02
4.600000000000000000e+02,6.529578900000000203e+02
4.610000000000000000e+02,6.532919299999999794e+02
4.620000000000000000e+02,6.536232899999999972e+02
4.630000000000000000e+02,6.539519000000000233e+02
4.640000000000000000e+02,6.542781400000000076e+02
4.650000000000000000e+02,6.546013799999999492e+02
4.660000000000000000e+02,6.549217499999999745e+02
4.670000000000000000e+02,6.552393799999999828e+02
4.680000000000000000e+02,6.555546299999999746e+02
4.690000000000000000e+02,6.558670700000000124e+02
4.700000000000000000e+02,6.561778600000000097e+02
4.710000000000000000e+02,6.564851700000000392e+02
4.720000000000000000e+02,6.567893699999999626e+02
4.730000000000000000e+02,6.570919800000000350e+02
4.740000000000000000e+02,6.573916600000000017e+02
4.750000000000000000e+02,6.576886600000000271e+02
4.760000000000000000e+02,6.579830899999999474e+02
4.770000000000000000e+02,6.582752699999999777e+02
4.780000000000000000e+02,6.585652499999999918e+02
4.790000000000000000e+02,6.588527199999999766e+02
4.800000000000000000e+02,6.591369600000000446e+02
4.810000000000000000e+02,6.594192500000000337e+02
4.820000000000000000e+02,6.596993999999999687e+02
4.830000000000000000e+02,6.599768100000000004e+02
4.840000000000000000e+02,6.602518300000000409e+02
4.850000000000000000e+02,6.605252100000000155e+02
4.860000000000000000e+02,6.607957199999999602e+02
4.870000000000000000e+02,6.610635999999999513e+02
4.880000000000000000e+02,6.613300199999999904e+02
4.890000000000000000e+02,6.615939899999999625e+02
4.900000000000000000e+02,6.618550400000000309e+02
4.910000000000000000e+02,6.621146899999999960e+02
4.920000000000000000e+02,6.623715200000000323e+02
4.930000000000000000e+02,6.626263400000000274e+02
4.940000000000000000e+02,6.628795800000000327e+02
4.950000000000000000e+02,6.631300700000000461e+02
4.960000000000000000e+02,6.633779899999999543e+02
4.970000000000000000e+02,6.636246899999999869e+02
4.980000000000000000e+02,6.638683499999999640e+02
4.990000000000000000e+02,6.641104699999999639e+02
5.000000000000000000e+02,6.643510099999999738e+02
5.010000000000000000e+02,6.645885600000000295e+02
5.020000000000000000e+02,6.648242199999999684e+02
5.030000000000000000e+02,6.650582299999999805e+02
5.040000000000000000e+02,6.652902800000000525e+02
5.050000000000000000e+02,6.655200200000000450e+02
5.060000000000000000e+02,6.657476799999999457e+02
5.070000000000000000e+02,6.659738200000000461e+02
5.080000000000000000e+02,6.661972700000000032e+02
5.090000000000000000e+02,6.664201000000000477e+02
5.100000000000000000e+02,6.666401399999999740e+02
5.110000000000000000e+02,6.668579700000000230e+02
5.120000000000000000e+02,6.670747699999999440e+02
5.130000000000000000e+02,6.672888799999999492e+02
5.140000000000000000e+02,6.675012799999999515e+02
5.150000000000000000e+02,6.677122799999999643e+02
5.160000000000000000e+02,6.679212599999999611e+02
5.170000000000000000e+02,6.681279299999999921e+02
5.180000000000000000e+02,6.683337999999999965e+02
5.190000000000000000e+02,6.685370500000000220e+02
5.200000000000000000e+02,6.687390699999999697e+02
5.210000000000000000e+02,6.689389599999999518e+02
5.220000000000000000e+02,6.691375699999999824e+02
5.230000000000000000e+02,6.693337400000000343e+02
5.240000000000000000e+02,6.695288100000000213e+02
5.250000000000000000e+02,6.697219199999999546e+02
5.260000000000000000e+02,6.699133299999999736e+02
5.270000000000000000e+02,6.701032699999999522e+02
5.280000000000000000e+02,6.702914399999999659e+02
5.290000000000000000e+02,6.704778400000000147e+02
5.300000000000000000e+02,6.706629599999999982e+02
5.310000000000000000e+02,6.708462500000000546e+02
5.320000000000000000e+02,6.710279500000000326e+02
5.330000000000000000e+02,6.712080099999999447e+02
5.340000000000000000e+02,6.713867199999999684e+02
5.350000000000000000e+02,6.715633500000000140e+02
5.360000000000000000e+02,6.717393200000000206e+02
5.370000000000000000e+02,6.719126599999999598e+02
5.380000000000000000e+02,6.720850199999999859e+02
5.390000000000000000e+02,6.722560399999999845e+02
5.400000000000000000e+02,6.724254799999999932e+02
5.410000000000000000e+02,6.725932599999999866e+02
5.420000000000000000e+02,6.727598299999999654e+02
5.430000000000000000e+02,6.729248000000000047e+02
5.440000000000000000e+02,6.730878900000000158e+02
5.450000000000000000e+02,6.732500000000000000e+02
5.460000000000000000e+02,6.734108899999999949e+02
5.470000000000000000e+02,6.735701299999999492e+02
5.480000000000000000e+02,6.737282099999999900e+02
5.490000000000000000e+02,6.738844000000000278e+02
5.500000000000000000e+02,6.740392500000000382e+02
5.510000000000000000e+02,6.741934199999999464e+02
5.520000000000000000e+02,6.743455800000000409e+02
5.530000000000000000e+02,6.744968300000000454e+02
5.540000000000000000e+02,6.746461799999999585e+02
5.550000000000000000e+02,6.747945600000000468e+02
5.560000000000000000e+02,6.749415900000000192e+02
5.570000000000000000e+02,6.750871600000000399e+02
5.580000000000000000e+02,6.752317500000000337e+02
5.590000000000000000e+02,6.753748799999999619e+02
5.600000000000000000e+02,6.755170299999999770e+02
5.610000000000000000e+02,6.756578399999999647e+02
5.620000000000000000e+02,6.757969399999999496e+02
5.630000000000000000e+02,6.759354200000000219e+02
5.640000000000000000e+02,6.760724500000000035e+02
5.650000000000000000e+02,6.762078900000000203e+02
5.660000000000000000e+02,6.763425300000000107e+02
5.670000000000000000e+02,6.764761999999999489e+02
5.680000000000000000e+02,6.766080899999999474e+02
5.690000000000000000e+02,6.767391999999999825e+02
5.700000000000000000e+02,6.768693200000000161e+02
5.710000000000000000e+02,6.769974999999999454e+02
5.720000000000000000e+02,6.771253100000000131e+02
5.730000000000000000e+02,6.772519499999999653e+02
5.740000000000000000e+02,6.773768300000000409e+02
5.750000000000000000e+02,6.775012799999999515e+02
5.760000000000000000e+02,6.776246899999999869e+02
5.770000000000000000e+02,6.777462199999999939e+02
5.780000000000000000e+02,6.778670700000000124e+02
5.790000000000000000e+02,6.779870600000000422e+02
5.800000000000000000e+02,6.781059599999999818e+02
5.810000000000000000e+02,6.782235100000000330e+02
5.820000000000000000e+02,6.783403299999999945e+02
5.830000000000000000e+02,6.784560500000000047e+02
5.840000000000000000e+02,6.785705600000000004e+02
5.850000000000000000e+02,6.786841399999999567e+02
5.860000000000000000e+02,6.787969399999999496e+02
5.870000000000000000e+02,6.789083900000000540e+02
5.880000000000000000e+02,6.790187399999999798e+02
5.890000000000000000e+02,6.791282999999999674e+02
5.900000000000000000e+02,6.792373000000000047e+02
5.910000000000000000e+02,6.793447300000000268e+02
5.920000000000000000e+02,6.794514799999999468e+02
5.930000000000000000e+02,6.795576200000000426e+02
5.940000000000000000e+02,6.796621699999999464e+02
5.950000000000000000e+02,6.797656899999999496e+02
5.960000000000000000e+02,6.798689000000000533e+02
5.970000000000000000e+02,6.799711899999999787e+02
5.980000000000000000e+02,6.800719000000000278e+02
5.990000000000000000e+02,6.801720000000000255e+02