# Time [s], Temperature [C]
1.000000000000000000e+00,2.500000000000000000e+01
2.000000000000000000e+00,2.500000000000000000e+01
3.000000000000000000e+00,2.500000000000000000e+01
4.000000000000000000e+00,2.500000000000000000e+01
5.000000000000000000e+00,2.500000599999999906e+01
6.000000000000000000e+00,2.500003399999999942e+01
7.000000000000000000e+00,2.500014699999999834e+01
8.000000000000000000e+00,2.500050399999999939e+01
9.000000000000000000e+00,2.500146900000000016e+01
1.000000000000000000e+01,2.500374000000000052e+01
1.100000000000000000e+01,2.500848399999999927e+01
1.200000000000000000e+01,2.501744499999999860e+01
1.300000000000000000e+01,2.503298399999999901e+01
1.400000000000000000e+01,2.505805799999999905e+01
1.500000000000000000e+01,2.509613399999999928e+01
1.600000000000000000e+01,2.515105799999999903e+01
1.700000000000000000e+01,2.522692299999999932e+01
1.800000000000000000e+01,2.532791100000000029e+01
1.900000000000000000e+01,2.545818099999999973e+01
2.000000000000000000e+01,2.562174800000000019e+01
2.100000000000000000e+01,2.582239699999999871e+01
2.200000000000000000e+01,2.606363299999999938e+01
2.300000000000000000e+01,2.634861199999999926e+01
2.400000000000000000e+01,2.668012799999999984e+01
2.500000000000000000e+01,2.706059499999999929e+01
2.600000000000000000e+01,2.749207499999999982e+01
2.700000000000000000e+01,2.797624000000000066e+01
2.800000000000000000e+01,2.851442099999999868e+01
2.900000000000000000e+01,2.914299799999999863e+01
3.000000000000000000e+01,2.980938899999999947e+01
3.100000000000000000e+01,3.052779599999999860e+01
3.200000000000000000e+01,3.130124999999999957e+01
3.300000000000000000e+01,3.212999700000000303e+01
3.400000000000000000e+01,3.301396600000000348e+01
3.500000000000000000e+01,3.395276299999999736e+01
3.600000000000000000e+01,3.494572800000000257e+01
3.700000000000000000e+01,3.599211100000000130e+01
3.800000000000000000e+01,3.709094600000000241e+01
3.900000000000000000e+01,3.824113799999999941e+01
4.000000000000000000e+01,3.944147900000000107e+01
4.100000000000000000e+01,4.069065100000000257e+01
4.200000000000000000e+01,4.198723999999999990e+01
4.300000000000000000e+01,4.332973899999999645e+01
4.400000000000000000e+01,4.471660200000000174e+01
4.500000000000000000e+01,4.614613299999999896e+01
4.600000000000000000e+01,4.761666900000000169e+01
4.700000000000000000e+01,4.912651400000000024e+01
4.800000000000000000e+01,5.067391599999999841e+01
4.900000000000000000e+01,5.225712200000000252e+01
5.000000000000000000e+01,5.387441599999999653e+01
5.100000000000000000e+01,5.552408599999999694e+01
5.200000000000000000e+01,5.720442599999999800e+01
5.300000000000000000e+01,5.891381499999999960e+01
5.400000000000000000e+01,6.065067299999999761e+01
5.500000000000000000e+01,6.241339899999999830e+01
5.600000000000000000e+01,6.420046999999999571e+01
5.700000000000000000e+01,6.601047499999999957e+01
5.800000000000000000e+01,6.784197199999999839e+01
5.900000000000000000e+01,6.969370299999999929e+01
6.000000000000000000e+01,7.156436899999999923e+01
6.100000000000000000e+01,7.345274399999999559e+01
6.200000000000000000e+01,7.535761300000000062e+01
6.300000000000000000e+01,7.727790099999999995e+01
6.400000000000000000e+01,7.921255499999999472e+01
6.500000000000000000e+01,8.116057600000000605e+01
6.600000000000000000e+01,8.312098699999999951e+01
6.700000000000000000e+01,8.509287999999999386e+01
6.800000000000000000e+01,8.707537800000000061e+01
6.900000000000000000e+01,8.906766500000000519e+01
7.000000000000000000e+01,9.106895400000000507e+01
7.100000000000000000e+01,9.307851399999999842e+01
7.200000000000000000e+01,9.509563400000000399e+01
7.300000000000000000e+01,9.711966700000000685e+01
7.400000000000000000e+01,9.914996299999999962e+01
7.500000000000000000e+01,1.011859100000000069e+02
7.600000000000000000e+01,1.032269399999999990e+02
7.700000000000000000e+01,1.052725099999999969e+02
7.800000000000000000e+01,1.073221000000000060e+02
7.900000000000000000e+01,1.093758799999999951e+02
8.000000000000000000e+01,1.114324299999999965e+02
8.100000000000000000e+01,1.134916199999999975e+02
8.200000000000000000e+01,1.155529599999999988e+02
8.300000000000000000e+01,1.176160799999999966e+02
8.400000000000000000e+01,1.196806799999999953e+02
8.500000000000000000e+01,1.217464800000000054e+02
8.600000000000000000e+01,1.238132599999999996e+02
8.700000000000000000e+01,1.258809399999999954e+02
8.800000000000000000e+01,1.279492900000000049e+02
8.900000000000000000e+01,1.300181900000000041e+02
9.000000000000000000e+01,1.320874599999999930e+02
9.100000000000000000e+01,1.341569100000000105e+02
9.200000000000000000e+01,1.362263000000000090e+02
9.300000000000000000e+01,1.382954599999999914e+02
9.400000000000000000e+01,1.403640100000000075e+02
9.500000000000000000e+01,1.424317499999999939e+02
9.600000000000000000e+01,1.444984100000000069e+02
9.700000000000000000e+01,1.465637199999999893e+02
9.800000000000000000e+01,1.486274300000000039e+02
9.900000000000000000e+01,1.506893200000000093e+02
1.000000000000000000e+02,1.527491100000000017e+02
1.010000000000000000e+02,1.548065799999999967e+02
1.020000000000000000e+02,1.568615000000000066e+02
1.030000000000000000e+02,1.589136499999999899e+02
1.040000000000000000e+02,1.609628099999999904e+02
1.050000000000000000e+02,1.630087699999999984e+02
1.060000000000000000e+02,1.650513500000000136e+02
1.070000000000000000e+02,1.670903199999999913e+02
1.080000000000000000e+02,1.691254700000000071e+02
1.090000000000000000e+02,1.711566200000000038e+02
1.100000000000000000e+02,1.731835499999999968e+02
1.110000000000000000e+02,1.752060999999999922e+02
1.120000000000000000e+02,1.772240799999999865e+02
1.130000000000000000e+02,1.792372699999999952e+02
1.140000000000000000e+02,1.812455300000000022e+02
1.150000000000000000e+02,1.832486600000000010e+02
1.160000000000000000e+02,1.852464600000000132e+02
1.170000000000000000e+02,1.872387699999999882e+02
1.180000000000000000e+02,1.892253900000000044e+02
1.190000000000000000e+02,1.912061600000000112e+02
1.200000000000000000e+02,1.931809199999999862e+02
1.210000000000000000e+02,1.951496400000000051e+02
1.220000000000000000e+02,1.971119400000000041e+02
1.230000000000000000e+02,1.990676400000000115e+02
1.240000000000000000e+02,2.010167199999999923e+02
1.250000000000000000e+02,2.029591100000000097e+02
1.260000000000000000e+02,2.048948100000000068e+02
1.270000000000000000e+02,2.068239000000000090e+02
1.280000000000000000e+02,2.087462800000000129e+02
1.290000000000000000e+02,2.106617599999999868e+02
1.300000000000000000e+02,2.125702400000000125e+02
1.310000000000000000e+02,2.144714700000000107e+02
1.320000000000000000e+02,2.163651600000000030e+02
1.330000000000000000e+02,2.182509599999999921e+02
1.340000000000000000e+02,2.201286499999999933e+02
1.350000000000000000e+02,2.219979099999999903e+02
1.360000000000000000e+02,2.238584299999999985e+02
1.370000000000000000e+02,2.257099800000000016e+02
1.380000000000000000e+02,2.275522499999999866e+02
1.390000000000000000e+02,2.293849600000000066e+02
1.400000000000000000e+02,2.312079200000000014e+02
1.410000000000000000e+02,2.330208000000000084e+02
1.420000000000000000e+02,2.348233600000000081e+02
1.430000000000000000e+02,2.366153099999999938e+02
1.440000000000000000e+02,2.383964100000000030e+02
1.450000000000000000e+02,2.401663200000000131e+02
1.460000000000000000e+02,2.419248399999999890e+02
1.470000000000000000e+02,2.436715900000000090e+02
1.480000000000000000e+02,2.454062700000000063e+02
1.490000000000000000e+02,2.471286499999999933e+02
1.500000000000000000e+02,2.488382699999999943e+02
1.510000000000000000e+02,2.505347899999999868e+02
1.520000000000000000e+02,2.522178600000000017e+02
1.530000000000000000e+02,2.538870799999999974e+02
1.540000000000000000e+02,2.555420499999999890e+02
1.550000000000000000e+02,2.571823099999999727e+02
1.560000000000000000e+02,2.588074300000000108e+02
1.570000000000000000e+02,2.604168399999999792e+02
1.580000000000000000e+02,2.620101300000000037e+02
1.590000000000000000e+02,2.635869799999999827e+02
1.600000000000000000e+02,2.651467599999999720e+02
1.610000000000000000e+02,2.666896100000000160e+02
1.620000000000000000e+02,2.682153599999999756e+02
1.630000000000000000e+02,2.697237900000000081e+02
1.640000000000000000e+02,2.712142900000000054e+02
1.650000000000000000e+02,2.726861299999999915e+02
1.660000000000000000e+02,2.741382100000000150e+02
1.670000000000000000e+02,2.755696399999999926e+02
1.680000000000000000e+02,2.769794600000000173e+02
1.690000000000000000e+02,2.783667599999999993e+02
1.700000000000000000e+02,2.797307700000000068e+02
1.710000000000000000e+02,2.810707400000000007e+02
1.720000000000000000e+02,2.823859899999999925e+02
1.730000000000000000e+02,2.836758699999999749e+02
1.740000000000000000e+02,2.849398499999999785e+02
1.750000000000000000e+02,2.861773999999999774e+02
1.760000000000000000e+02,2.873880599999999959e+02
1.770000000000000000e+02,2.885713799999999765e+02
1.780000000000000000e+02,2.897270800000000008e+02
1.790000000000000000e+02,2.908548299999999927e+02
1.800000000000000000e+02,2.919544700000000148e+02
1.810000000000000000e+02,2.930258499999999913e+02
1.820000000000000000e+02,2.940689100000000167e+02
1.830000000000000000e+02,2.950835900000000152e+02
1.840000000000000000e+02,2.960701300000000060e+02
1.850000000000000000e+02,2.970285900000000083e+02
1.860000000000000000e+02,2.979592900000000100e+02
1.870000000000000000e+02,2.988625799999999799e+02
1.880000000000000000e+02,2.997388900000000262e+02
1.890000000000000000e+02,3.005887099999999919e+02
1.900000000000000000e+02,3.014302400000000262e+02
1.910000000000000000e+02,3.022408800000000042e+02
1.920000000000000000e+02,3.030274699999999939e+02
1.930000000000000000e+02,3.037916299999999978e+02
1.940000000000000000e+02,3.045332599999999843e+02
1.950000000000000000e+02,3.052525299999999788e+02
1.960000000000000000e+02,3.059498300000000199e+02
1.970000000000000000e+02,3.066259800000000268e+02
1.980000000000000000e+02,3.072818599999999947e+02
1.990000000000000000e+02,3.079186399999999821e+02
2.000000000000000000e+02,3.085374800000000164e+02
2.010000000000000000e+02,3.091394999999999982e+02
2.020000000000000000e+02,3.097258899999999926e+02
2.030000000000000000e+02,3.102977900000000204e+02
2.040000000000000000e+02,3.108564099999999826e+02
2.050000000000000000e+02,3.114028299999999945e+02
2.060000000000000000e+02,3.119381399999999758e+02
2.070000000000000000e+02,3.124634399999999914e+02
2.080000000000000000e+02,3.129796799999999735e+02
2.090000000000000000e+02,3.134879199999999742e+02
2.100000000000000000e+02,3.139891099999999824e+02
2.110000000000000000e+02,3.144840699999999742e+02
2.120000000000000000e+02,3.149737499999999955e+02
2.130000000000000000e+02,3.154590099999999779e+02
2.140000000000000000e+02,3.159405199999999923e+02
2.150000000000000000e+02,3.164190699999999765e+02
2.160000000000000000e+02,3.168953900000000203e+02
2.170000000000000000e+02,3.173700900000000047e+02
2.180000000000000000e+02,3.179172100000000114e+02
2.190000000000000000e+02,3.184298099999999749e+02
2.200000000000000000e+02,3.189307900000000018e+02
2.210000000000000000e+02,3.194258399999999938e+02
2.220000000000000000e+02,3.199166599999999789e+02
2.230000000000000000e+02,3.204053999999999860e+02
2.240000000000000000e+02,3.208933999999999855e+02
2.250000000000000000e+02,3.213818400000000111e+02
2.260000000000000000e+02,3.218717300000000137e+02
2.270000000000000000e+02,3.223638300000000072e+02
2.280000000000000000e+02,3.228586700000000178e+02
2.290000000000000000e+02,3.233568700000000149e+02
2.300000000000000000e+02,3.238589499999999930e+02
2.310000000000000000e+02,3.243652999999999906e+02
2.320000000000000000e+02,3.248761299999999892e+02
2.330000000000000000e+02,3.253920600000000150e+02
2.340000000000000000e+02,3.259132399999999734e+02
2.350000000000000000e+02,3.264400899999999979e+02
2.360000000000000000e+02,3.269728999999999814e+02
2.370000000000000000e+02,3.275119300000000067e+02
2.380000000000000000e+02,3.280575600000000236e+02
2.390000000000000000e+02,3.286098299999999881e+02
2.400000000000000000e+02,3.291691900000000146e+02
2.410000000000000000e+02,3.297359900000000152e+02
2.420000000000000000e+02,3.303103899999999840e+02
2.430000000000000000e+02,3.308929099999999721e+02
2.440000000000000000e+02,3.314834900000000175e+02
2.450000000000000000e+02,3.320826700000000073e+02
2.460000000000000000e+02,3.326907299999999736e+02
2.470000000000000000e+02,3.335291700000000219e+02
2.480000000000000000e+02,3.342298599999999738e+02
2.490000000000000000e+02,3.348913600000000201e+02
2.500000000000000000e+02,3.355518200000000206e+02
2.510000000000000000e+02,3.362168300000000158e+02
2.520000000000000000e+02,3.368901399999999740e+02
2.530000000000000000e+02,3.375735199999999736e+02
2.540000000000000000e+02,3.382684600000000046e+02
2.550000000000000000e+02,3.389757999999999925e+02
2.560000000000000000e+02,3.396961699999999951e+02
2.570000000000000000e+02,3.404302400000000262e+02
2.580000000000000000e+02,3.411784999999999854e+02
2.590000000000000000e+02,3.419417399999999816e+02
2.600000000000000000e+02,3.427204600000000028e+02
2.610000000000000000e+02,3.435151399999999740e+02
2.620000000000000000e+02,3.443263900000000035e+02
2.630000000000000000e+02,3.451552100000000110e+02
2.640000000000000000e+02,3.460022599999999784e+02
2.650000000000000000e+02,3.468681599999999889e+02
2.660000000000000000e+02,3.477538799999999810e+02
2.670000000000000000e+02,3.486599699999999871e+02
2.680000000000000000e+02,3.495880399999999781e+02
2.690000000000000000e+02,3.505389099999999871e+02
2.700000000000000000e+02,3.515129400000000146e+02
2.710000000000000000e+02,3.525120200000000068e+02
2.720000000000000000e+02,3.535369900000000030e+02
2.730000000000000000e+02,3.545896299999999997e+02
2.740000000000000000e+02,3.556708399999999983e+02
2.750000000000000000e+02,3.567822600000000079e+02
2.760000000000000000e+02,3.579248999999999796e+02
2.770000000000000000e+02,3.591011700000000246e+02
2.780000000000000000e+02,3.603125600000000190e+02
2.790000000000000000e+02,3.615611299999999915e+02
2.800000000000000000e+02,3.628484500000000139e+02
2.810000000000000000e+02,3.641770000000000209e+02
2.820000000000000000e+02,3.661251199999999812e+02
2.830000000000000000e+02,3.676476700000000051e+02
2.840000000000000000e+02,3.691353500000000167e+02
2.850000000000000000e+02,3.706696200000000090e+02
2.860000000000000000e+02,3.722503100000000131e+02
2.870000000000000000e+02,3.738892799999999852e+02
2.880000000000000000e+02,3.755884399999999914e+02
2.890000000000000000e+02,3.773512600000000248e+02
2.900000000000000000e+02,3.791810600000000022e+02
2.910000000000000000e+02,3.810838600000000156e+02
2.920000000000000000e+02,3.830621600000000058e+02
2.930000000000000000e+02,3.851185300000000211e+02
2.940000000000000000e+02,3.872587300000000141e+02
2.950000000000000000e+02,3.894864799999999718e+02
2.960000000000000000e+02,3.918045999999999935e+02
2.970000000000000000e+02,3.942182000000000244e+02
2.980000000000000000e+02,3.967307999999999879e+02
2.990000000000000000e+02,3.993448500000000081e+02
3.000000000000000000e+02,4.020640900000000215e+02
3.010000000000000000e+02,4.048931600000000230e+02
3.020000000000000000e+02,4.078319099999999935e+02
3.030000000000000000e+02,4.108841600000000085e+02
3.040000000000000000e+02,4.140504799999999932e+02
3.050000000000000000e+02,4.173324600000000260e+02
3.060000000000000000e+02,4.207308699999999817e+02
3.070000000000000000e+02,4.242460300000000188e+02
3.080000000000000000e+02,4.278778699999999731e+02
3.090000000000000000e+02,4.316227099999999837e+02
3.100000000000000000e+02,4.354763199999999870e+02
3.110000000000000000e+02,4.394290500000000179e+02
3.120000000000000000e+02,4.434657599999999888e+02
3.130000000000000000e+02,4.475642700000000218e+02
3.140000000000000000e+02,4.516973300000000222e+02
3.150000000000000000e+02,4.558316300000000183e+02
3.160000000000000000e+02,4.599334699999999998e+02
3.170000000000000000e+02,4.639707000000000221e+02
3.180000000000000000e+02,4.679196200000000090e+02
3.190000000000000000e+02,4.717627600000000143e+02
3.200000000000000000e+02,4.754911200000000235e+02
3.210000000000000000e+02,4.791030299999999897e+02
3.220000000000000000e+02,4.826013800000000060e+02
3.230000000000000000e+02,4.859923099999999749e+02
3.240000000000000000e+02,4.892839399999999728e+02
3.250000000000000000e+02,4.924859900000000152e+02
3.260000000000000000e+02,4.956060200000000009e+02
3.270000000000000000e+02,4.986527100000000132e+02
3.280000000000000000e+02,5.016318999999999733e+02
3.290000000000000000e+02,5.045478800000000206e+02
3.300000000000000000e+02,5.074056400000000053e+02
3.310000000000000000e+02,5.102087099999999964e+02
3.320000000000000000e+02,5.129599600000000237e+02
3.330000000000000000e+02,5.156621099999999842e+02
3.340000000000000000e+02,5.183175700000000461e+02
3.350000000000000000e+02,5.209276099999999587e+02
3.360000000000000000e+02,5.234950000000000045e+02
3.370000000000000000e+02,5.260208699999999453e+02
3.380000000000000000e+02,5.285067099999999982e+02
3.390000000000000000e+02,5.309542199999999639e+02
3.400000000000000000e+02,5.333646199999999453e+02
3.410000000000000000e+02,5.357383399999999938e+02
3.420000000000000000e+02,5.380769000000000233e+02
3.430000000000000000e+02,5.403809800000000223e+02
3.440000000000000000e+02,5.426514899999999670e+02
3.450000000000000000e+02,5.448890400000000227e+02
3.460000000000000000e+02,5.470943600000000515e+02
3.470000000000000000e+02,5.492681900000000041e+02
3.480000000000000000e+02,5.514110100000000330e+02
3.490000000000000000e+02,5.535236200000000508e+02
3.500000000000000000e+02,5.556061399999999821e+02
3.510000000000000000e+02,5.576597299999999677e+02
3.520000000000000000e+02,5.596842699999999695e+02
3.530000000000000000e+02,5.616804799999999886e+02
3.540000000000000000e+02,5.636487399999999752e+02
3.550000000000000000e+02,5.655894799999999805e+02
3.560000000000000000e+02,5.675028700000000299e+02
3.570000000000000000e+02,5.693897699999999986e+02
3.580000000000000000e+02,5.712503699999999753e+02
3.590000000000000000e+02,5.730848399999999856e+02
3.600000000000000000e+02,5.748938600000000179e+02
3.610000000000000000e+02,5.766774299999999585e+02
3.620000000000000000e+02,5.784362200000000485e+02
3.630000000000000000e+02,5.801702900000000227e+02
3.640000000000000000e+02,5.818802500000000464e+02
3.650000000000000000e+02,5.835661000000000058e+02
3.660000000000000000e+02,5.852282699999999522e+02
3.670000000000000000e+02,5.868672500000000127e+02
3.680000000000000000e+02,5.884831500000000233e+02
3.690000000000000000e+02,5.900764799999999468e+02
3.700000000000000000e+02,5.916472800000000234e+02
3.710000000000000000e+02,5.931959200000000010e+02
3.720000000000000000e+02,5.947227799999999434e+02
3.730000000000000000e+02,5.962280899999999519e+02
3.740000000000000000e+02,5.977118500000000267e+02
3.750000000000000000e+02,5.991746799999999666e+02
3.760000000000000000e+02,6.006168199999999615e+02
3.770000000000000000e+02,6.020383299999999736e+02
3.780000000000000000e+02,6.034398200000000543e+02
3.790000000000000000e+02,6.048211700000000519e+02
3.800000000000000000e+02,6.061830400000000054e+02
3.810000000000000000e+02,6.075253300000000536e+02
3.820000000000000000e+02,6.088485100000000330e+02
3.830000000000000000e+02,6.101528299999999945e+02
3.840000000000000000e+02,6.114382900000000518e+02
3.850000000000000000e+02,6.127053200000000288e+02
3.860000000000000000e+02,6.139542199999999639e+02
3.870000000000000000e+02,6.151851799999999457e+02
3.880000000000000000e+02,6.163983799999999746e+02
3.890000000000000000e+02,6.175940600000000131e+02
3.900000000000000000e+02,6.187725199999999859e+02
3.910000000000000000e+02,6.199340200000000323e+02
3.920000000000000000e+02,6.210788000000000011e+02
3.930000000000000000e+02,6.222069099999999935e+02
3.940000000000000000e+02,6.233186600000000226e+02
3.950000000000000000e+02,6.244143100000000004e+02
3.960000000000000000e+02,6.254939600000000155e+02
3.970000000000000000e+02,6.265579800000000432e+02
3.980000000000000000e+02,6.276065099999999575e+02
3.990000000000000000e+02,6.286396499999999605e+02
4.000000000000000000e+02,6.296578399999999647e+02
4.010000000000000000e+02,6.306610699999999952e+02
4.020000000000000000e+02,6.316497799999999643e+02
4.030000000000000000e+02,6.326239000000000487e+02
4.040000000000000000e+02,6.335839200000000346e+02
4.050000000000000000e+02,6.345295999999999594e+02
4.060000000000000000e+02,6.354615499999999884e+02
4.070000000000000000e+02,6.363798799999999574e+02
4.080000000000000000e+02,6.372846100000000433e+02
4.090000000000000000e+02,6.381760299999999688e+02
4.100000000000000000e+02,6.390543800000000374e+02
4.110000000000000000e+02,6.399198599999999715e+02
4.120000000000000000e+02,6.407724600000000237e+02
4.130000000000000000e+02,6.416124899999999798e+02
4.140000000000000000e+02,6.424400600000000168e+02
4.150000000000000000e+02,6.432554900000000089e+02
4.160000000000000000e+02,6.440588400000000320e+02
4.170000000000000000e+02,6.448502799999999979e+02
4.180000000000000000e+02,6.456299999999999955e+02
4.190000000000000000e+02,6.463981300000000374e+02
4.200000000000000000e+02,6.471549099999999726e+02
4.210000000000000000e+02,6.479004499999999780e+02
4.220000000000000000e+02,6.486348299999999654e+02
4.230000000000000000e+02,6.493582199999999602e+02
4.240000000000000000e+02,6.500709799999999632e+02
4.250000000000000000e+02,6.507730699999999615e+02
4.260000000000000000e+02,6.514646599999999808e+02
4.270000000000000000e+02,6.521458699999999453e+02
4.280000000000000000e+02,6.528170800000000327e+02
4.290000000000000000e+02,6.534781500000000278e+02
4.300000000000000000e+02,6.541293299999999817e+02
4.310000000000000000e+02,6.547708699999999453e+02
4.320000000000000000e+02,6.554027099999999564e+02
4.330000000000000000e+02,6.560250899999999774e+02
4.340000000000000000e+02,6.566381800000000339e+02
4.350000000000000000e+02,6.572419999999999618e+02
4.360000000000000000e+02,6.578368500000000267e+02
4.370000000000000000e+02,6.584227300000000014e+02
4.380000000000000000e+02,6.589998199999999997e+02
4.390000000000000000e+02,6.595681200000000217e+02
4.400000000000000000e+02,6.601280500000000302e+02
4.410000000000000000e+02,6.606793800000000374e+02
4.420000000000000000e+02,6.612224099999999680e+02
4.430000000000000000e+02,6.617573899999999867e+02
4.440000000000000000e+02,6.622841799999999921e+02
4.450000000000000000e+02,6.628030999999999722e+02
4.460000000000000000e+02,6.633142100000000028e+02
4.470000000000000000e+02,6.638174999999999955e+02
4.480000000000000000e+02,6.643132299999999759e+02
4.490000000000000000e+02,6.648014500000000453e+02
4.500000000000000000e+02,6.652823499999999513e+02
4.510000000000000000e+02,6.657559800000000223e+02
4.520000000000000000e+02,6.662224099999999680e+02
4.530000000000000000e+02,6.666817600000000539e+02
4.540000000000000000e+02,6.671341599999999517e+02
4.550000000000000000e+02,6.675797099999999773e+02
4.560000000000000000e+02,6.680184900000000425e+02
4.570000000000000000e+02,6.684506199999999581e+02
4.580000000000000000e+02,6.688762199999999893e+02
4.590000000000000000e+02,6.692953499999999849e+02
4.600000000000000000e+02,6.697080700000000206e+02
4.610000000000000000e+02,6.701145000000000209e+02
4.620000000000000000e+02,6.705147699999999986e+02
4.630000000000000000e+02,6.709089400000000296e+02
4.640000000000000000e+02,6.712971199999999499e+02
4.650000000000000000e+02,6.716793800000000374e+02
4.660000000000000000e+02,6.720558499999999640e+02
4.670000000000000000e+02,6.724265100000000075e+02
4.680000000000000000e+02,6.727915600000000040e+02
4.690000000000000000e+02,6.731510600000000295e+02
4.700000000000000000e+02,6.735051300000000083e+02
4.710000000000000000e+02,6.738537000000000035e+02
4.720000000000000000e+02,6.741970199999999522e+02
4.730000000000000000e+02,6.745351000000000568e+02
4.740000000000000000e+02,6.748679799999999886e+02
4.750000000000000000e+02,6.751957999999999629e+02
4.760000000000000000e+02,6.755185500000000047e+02
4.770000000000000000e+02,6.758363600000000133e+02
4.780000000000000000e+02,6.761494099999999889e+02
4.790000000000000000e+02,6.764575800000000072e+02
4.800000000000000000e+02,6.767610499999999547e+02
4.810000000000000000e+02,6.770598800000000210e+02
4.820000000000000000e+02,6.773541900000000169e+02
4.830000000000000000e+02,6.776439199999999801e+02
4.840000000000000000e+02,6.779292000000000371e+02
4.850000000000000000e+02,6.782101400000000240e+02
4.860000000000000000e+02,6.784867600000000039e+02
4.870000000000000000e+02,6.787591599999999517e+02
4.880000000000000000e+02,6.790273999999999432e+02
4.890000000000000000e+02,6.792914399999999659e+02
4.900000000000000000e+02,6.795515100000000075e+02
4.910000000000000000e+02,6.798075599999999667e+02
4.920000000000000000e+02,6.800596299999999701e+02
4.930000000000000000e+02,6.803078600000000051e+02
4.940000000000000000e+02,6.805523100000000341e+02
4.950000000000000000e+02,6.807929699999999684e+02
4.960000000000000000e+02,6.810299700000000485e+02
4.970000000000000000e+02,6.812633100000000468e+02
4.980000000000000000e+02,6.814930399999999509e+02
4.990000000000000000e+02,6.817192400000000134e+02
5.000000000000000000e+02,6.819419599999999946e+02
5.010000000000000000e+02,6.821612499999999955e+02
5.020000000000000000e+02,6.823772000000000162e+02
5.030000000000000000e+02,6.825897800000000188e+02
5.040000000000000000e+02,6.827990700000000288e+02
5.050000000000000000e+02,6.830051899999999705e+02
5.060000000000000000e+02,6.832081299999999828e+02
5.070000000000000000e+02,6.834079000000000406e+02
5.080000000000000000e+02,6.836046099999999797e+02
5.090000000000000000e+02,6.837982799999999770e+02
5.100000000000000000e+02,6.839889500000000453e+02
5.110000000000000000e+02,6.841766999999999825e+02
5.120000000000000000e+02,6.843615700000000288e+02
5.130000000000000000e+02,6.845435800000000199e+02
5.140000000000000000e+02,6.847227799999999434e+02
5.150000000000000000e+02,6.848991700000000264e+02
5.160000000000000000e+02,6.850728800000000547e+02
5.170000000000000000e+02,6.852439000000000533e+02
5.180000000000000000e+02,6.854122899999999845e+02
5.190000000000000000e+02,6.855780600000000504e+02
5.200000000000000000e+02,6.857412699999999859e+02
5.210000000000000000e+02,6.859019799999999805e+02
5.220000000000000000e+02,6.860601799999999457e+02
5.230000000000000000e+02,6.862159400000000460e+02
5.240000000000000000e+02,6.863693200000000161e+02
5.250000000000000000e+02,6.865202600000000075e+02
5.260000000000000000e+02,6.866689499999999953e+02
5.270000000000000000e+02,6.868153099999999540e+02
5.280000000000000000e+02,6.869594100000000481e+02
5.290000000000000000e+02,6.871012600000000248e+02
5.300000000000000000e+02,6.872409099999999853e+02
5.310000000000000000e+02,6.873784200000000055e+02
5.320000000000000000e+02,6.875137899999999718e+02
5.330000000000000000e+02,6.876470900000000483e+02
5.340000000000000000e+02,6.877782600000000457e+02
5.350000000000000000e+02,6.879074699999999893e+02
5.360000000000000000e+02,6.880346700000000055e+02
5.370000000000000000e+02,6.881598500000000058e+02
5.380000000000000000e+02,6.882831400000000031e+02
5.390000000000000000e+02,6.884044800000000350e+02
5.400000000000000000e+02,6.885239900000000262e+02
5.410000000000000000e+02,6.886416000000000395e+02
5.420000000000000000e+02,6.887574499999999489e+02
5.430000000000000000e+02,6.888714599999999564e+02
5.440000000000000000e+02,6.889836999999999989e+02
5.450000000000000000e+02,6.890942400000000134e+02
5.460000000000000000e+02,6.892029999999999745e+02
5.470000000000000000e+02,6.893101199999999835e+02
5.480000000000000000e+02,6.894155299999999897e+02
5.490000000000000000e+02,6.895193500000000313e+02
5.500000000000000000e+02,6.896215200000000323e+02
5.510000000000000000e+02,6.897221700000000055e+02
5.520000000000000000e+02,6.898212300000000141e+02
5.530000000000000000e+02,6.899187600000000202e+02
5.540000000000000000e+02,6.900147100000000364e+02
5.550000000000000000e+02,6.901092499999999745e+02
5.560000000000000000e+02,6.902022699999999986e+02
5.570000000000000000e+02,6.902938799999999446e+02
5.580000000000000000e+02,6.903840300000000525e+02
5.590000000000000000e+02,6.904728400000000192e+02
5.600000000000000000e+02,6.905602400000000216e+02
5.610000000000000000e+02,6.906462999999999965e+02
5.620000000000000000e+02,6.907310199999999440e+02
5.630000000000000000e+02,6.908143900000000031e+02
5.640000000000000000e+02,6.908964799999999968e+02
5.650000000000000000e+02,6.909772900000000391e+02
5.660000000000000000e+02,6.910568799999999783e+02
5.670000000000000000e+02,6.911351899999999659e+02
5.680000000000000000e+02,6.912122799999999643e+02
5.690000000000000000e+02,6.912882100000000491e+02
5.700000000000000000e+02,6.913629799999999932e+02
5.710000000000000000e+02,6.914365199999999732e+02
5.720000000000000000e+02,6.915089699999999766e+02
5.730000000000000000e+02,6.915802599999999529e+02
5.740000000000000000e+02,6.916504499999999780e+02
5.750000000000000000e+02,6.917195400000000518e+02
5.760000000000000000e+02,6.917875999999999976e+02
5.770000000000000000e+02,6.918545500000000175e+02
5.780000000000000000e+02,6.919204700000000230e+02
5.790000000000000000e+02,6.919854100000000017e+02
5.800000000000000000e+02,6.920492600000000039e+02
5.810000000000000000e+02,6.921121799999999666e+02
5.820000000000000000e+02,6.921741299999999910e+02
5.830000000000000000e+02,6.922350500000000011e+02
5.840000000000000000e+02,6.922951000000000477e+02
5.850000000000000000e+02,6.923541900000000169e+02
5.860000000000000000e+02,6.924122899999999845e+02
5.870000000000000000e+02,6.924695400000000518e+02
5.880000000000000000e+02,6.925259399999999914e+02
5.890000000000000000e+02,6.925814199999999801e+02
5.900000000000000000e+02,6.926360499999999547e+02
5.910000000000000000e+02,6.926898200000000543e+02
5.920000000000000000e+02,6.927427400000000262e+02
5.930000000000000000e+02,6.927948599999999715e+02
5.940000000000000000e+02,6.928461300000000165e+02
5.950000000000000000e+02,6.928966699999999719e+02
5.960000000000000000e+02,6.929463500000000522e+02
5.970000000000000000e+02,6.929953000000000429e+02
5.980000000000000000e+02,6.930435199999999440e+02
5.990000000000000000e+02,6.930909400000000460e+02