# Time [s], Temperature [C]
1.000000000000000000e+00,2.500000000000000000e+01
2.000000000000000000e+00,2.500000000000000000e+01
3.000000000000000000e+00,2.500000000000000000e+01
4.000000000000000000e+00,2.500000000000000000e+01
5.000000000000000000e+00,2.500000000000000000e+01
6.000000000000000000e+00,2.500000000000000000e+01
7.000000000000000000e+00,2.500000199999999850e+01
8.000000000000000000e+00,2.500000599999999906e+01
9.000000000000000000e+00,2.500002100000000027e+01
1.000000000000000000e+01,2.500005700000000175e+01
1.100000000000000000e+01,2.500013699999999872e+01
1.200000000000000000e+01,2.500030500000000089e+01
1.300000000000000000e+01,2.500061600000000084e+01
1.400000000000000000e+01,2.500115600000000171e+01
1.500000000000000000e+01,2.500203099999999878e+01
1.600000000000000000e+01,2.500337000000000032e+01
1.700000000000000000e+01,2.500532899999999970e+01
1.800000000000000000e+01,2.500807000000000002e+01
1.900000000000000000e+01,2.501178000000000168e+01
2.000000000000000000e+01,2.501664399999999944e+01
2.100000000000000000e+01,2.502285200000000032e+01
2.200000000000000000e+01,2.503059999999999974e+01
2.300000000000000000e+01,2.504007100000000108e+01
2.400000000000000000e+01,2.505144900000000163e+01
2.500000000000000000e+01,2.506490099999999899e+01
2.600000000000000000e+01,2.508058700000000130e+01
2.700000000000000000e+01,2.509865999999999886e+01
2.800000000000000000e+01,2.511924700000000144e+01
2.900000000000000000e+01,2.514247500000000102e+01
3.000000000000000000e+01,2.516844899999999896e+01
3.100000000000000000e+01,2.519726800000000111e+01
3.200000000000000000e+01,2.522900800000000032e+01
3.300000000000000000e+01,2.526374399999999909e+01
3.400000000000000000e+01,2.530153100000000066e+01
3.500000000000000000e+01,2.534241899999999958e+01
3.600000000000000000e+01,2.538644199999999884e+01
3.700000000000000000e+01,2.543363000000000085e+01
3.800000000000000000e+01,2.548399699999999868e+01
3.900000000000000000e+01,2.553755599999999859e+01
4.000000000000000000e+01,2.559430899999999909e+01
4.100000000000000000e+01,2.565425099999999858e+01
4.200000000000000000e+01,2.571737500000000054e+01
4.300000000000000000e+01,2.578366099999999861e+01
4.400000000000000000e+01,2.585309200000000018e+01
4.500000000000000000e+01,2.592563799999999929e+01
4.600000000000000000e+01,2.600127200000000016e+01
4.700000000000000000e+01,2.607996400000000037e+01
4.800000000000000000e+01,2.616167400000000143e+01
4.900000000000000000e+01,2.624636699999999934e+01
5.000000000000000000e+01,2.633399800000000113e+01
5.100000000000000000e+01,2.642452400000000168e+01
5.200000000000000000e+01,2.651790599999999998e+01
5.300000000000000000e+01,2.661409400000000147e+01
5.400000000000000000e+01,2.671304100000000048e+01
5.500000000000000000e+01,2.681469900000000095e+01
5.600000000000000000e+01,2.691901800000000122e+01
5.700000000000000000e+01,2.702595099999999917e+01
5.800000000000000000e+01,2.713544699999999921e+01
5.900000000000000000e+01,2.724745400000000117e+01
6.000000000000000000e+01,2.736192300000000088e+01
6.100000000000000000e+01,2.747880599999999873e+01
6.200000000000000000e+01,2.759804899999999961e+01
6.300000000000000000e+01,2.771960400000000035e+01
6.400000000000000000e+01,2.784342200000000034e+01
6.500000000000000000e+01,2.796945200000000042e+01
6.600000000000000000e+01,2.809764499999999998e+01
6.700000000000000000e+01,2.822795299999999941e+01
6.800000000000000000e+01,2.836032900000000012e+01
6.900000000000000000e+01,2.849472400000000150e+01
7.000000000000000000e+01,2.863109400000000093e+01
7.100000000000000000e+01,2.876938799999999929e+01
7.200000000000000000e+01,2.890956699999999913e+01
7.300000000000000000e+01,2.905158199999999979e+01
7.400000000000000000e+01,2.919538899999999870e+01
7.500000000000000000e+01,2.934094599999999886e+01
7.600000000000000000e+01,2.948821099999999973e+01
7.700000000000000000e+01,2.963713999999999871e+01
7.800000000000000000e+01,2.978769300000000086e+01
7.900000000000000000e+01,2.993983300000000014e+01
8.000000000000000000e+01,3.009351699999999852e+01
8.100000000000000000e+01,3.024870500000000106e+01
8.200000000000000000e+01,3.040536099999999919e+01
8.300000000000000000e+01,3.056344800000000106e+01
8.400000000000000000e+01,3.072292900000000060e+01
8.500000000000000000e+01,3.088376999999999839e+01
8.600000000000000000e+01,3.104593500000000006e+01
8.700000000000000000e+01,3.120938699999999955e+01
8.800000000000000000e+01,3.137409399999999948e+01
8.900000000000000000e+01,3.154002799999999951e+01
9.000000000000000000e+01,3.170714999999999861e+01
9.100000000000000000e+01,3.187543300000000102e+01
9.200000000000000000e+01,3.204484200000000271e+01
9.300000000000000000e+01,3.221535500000000241e+01
9.400000000000000000e+01,3.238693200000000161e+01
9.500000000000000000e+01,3.255955099999999902e+01
9.600000000000000000e+01,3.273318900000000298e+01
9.700000000000000000e+01,3.290780600000000078e+01
9.800000000000000000e+01,3.308338499999999982e+01
9.900000000000000000e+01,3.325989500000000021e+01
1.000000000000000000e+02,3.343731300000000317e+01
1.010000000000000000e+02,3.361561199999999872e+01
1.020000000000000000e+02,3.379476900000000228e+01
1.030000000000000000e+02,3.397476199999999835e+01
1.040000000000000000e+02,3.415556300000000078e+01
1.050000000000000000e+02,3.433715399999999818e+01
1.060000000000000000e+02,3.451950800000000186e+01
1.070000000000000000e+02,3.470260999999999996e+01
1.080000000000000000e+02,3.488643299999999670e+01
1.090000000000000000e+02,3.507095699999999994e+01
1.100000000000000000e+02,3.525616500000000286e+01
1.110000000000000000e+02,3.544203600000000165e+01
1.120000000000000000e+02,3.562854399999999799e+01
1.130000000000000000e+02,3.581568500000000199e+01
1.140000000000000000e+02,3.600342599999999749e+01
1.150000000000000000e+02,3.619175700000000262e+01
1.160000000000000000e+02,3.638066100000000347e+01
1.170000000000000000e+02,3.657011399999999668e+01
1.180000000000000000e+02,3.676010899999999992e+01
1.190000000000000000e+02,3.695062300000000022e+01
1.200000000000000000e+02,3.714164399999999944e+01
1.210000000000000000e+02,3.733314899999999881e+01
1.220000000000000000e+02,3.752513499999999880e+01
1.230000000000000000e+02,3.771757499999999652e+01
1.240000000000000000e+02,3.791046099999999797e+01
1.250000000000000000e+02,3.810377900000000295e+01
1.260000000000000000e+02,3.829751600000000167e+01
1.270000000000000000e+02,3.849165699999999646e+01
1.280000000000000000e+02,3.868618800000000135e+01
1.290000000000000000e+02,3.888109599999999944e+01
1.300000000000000000e+02,3.907637400000000127e+01
1.310000000000000000e+02,3.927199900000000099e+01
1.320000000000000000e+02,3.946797200000000316e+01
1.330000000000000000e+02,3.966427199999999686e+01
1.340000000000000000e+02,3.986089299999999724e+01
1.350000000000000000e+02,4.005781900000000206e+01
1.360000000000000000e+02,4.025504699999999758e+01
1.370000000000000000e+02,4.045255699999999877e+01
1.380000000000000000e+02,4.065034500000000151e+01
1.390000000000000000e+02,4.084839999999999804e+01
1.400000000000000000e+02,4.104671100000000195e+01
1.410000000000000000e+02,4.124527400000000199e+01
1.420000000000000000e+02,4.144406899999999894e+01
1.430000000000000000e+02,4.164309699999999737e+01
1.440000000000000000e+02,4.184234599999999915e+01
1.450000000000000000e+02,4.204180499999999654e+01
1.460000000000000000e+02,4.224146700000000010e+01
1.470000000000000000e+02,4.244132599999999655e+01
1.480000000000000000e+02,4.264136899999999741e+01
1.490000000000000000e+02,4.284159499999999809e+01
1.500000000000000000e+02,4.304198800000000347e+01
1.510000000000000000e+02,4.324255000000000138e+01
1.520000000000000000e+02,4.344326800000000333e+01
1.530000000000000000e+02,4.364413499999999857e+01
1.540000000000000000e+02,4.384514599999999973e+01
1.550000000000000000e+02,4.404629099999999653e+01
1.560000000000000000e+02,4.424757000000000318e+01
1.570000000000000000e+02,4.444896700000000322e+01
1.580000000000000000e+02,4.465048600000000079e+01
1.590000000000000000e+02,4.485211199999999820e+01
1.600000000000000000e+02,4.505384399999999800e+01
1.610000000000000000e+02,4.525567600000000112e+01
1.620000000000000000e+02,4.545760299999999887e+01
1.630000000000000000e+02,4.565961500000000228e+01
1.640000000000000000e+02,4.586171000000000220e+01
1.650000000000000000e+02,4.606388100000000208e+01
1.660000000000000000e+02,4.626612899999999939e+01
1.670000000000000000e+02,4.646844099999999855e+01
1.680000000000000000e+02,4.667081799999999703e+01
1.690000000000000000e+02,4.687324900000000127e+01
1.700000000000000000e+02,4.707573299999999961e+01
1.710000000000000000e+02,4.727826699999999960e+01
1.720000000000000000e+02,4.748084599999999966e+01
1.730000000000000000e+02,4.768345999999999663e+01
1.740000000000000000e+02,4.788611199999999712e+01
1.750000000000000000e+02,4.808879499999999751e+01
1.760000000000000000e+02,4.829150800000000032e+01
1.770000000000000000e+02,4.849423999999999779e+01
1.780000000000000000e+02,4.869699500000000114e+01
1.790000000000000000e+02,4.889976500000000215e+01
1.800000000000000000e+02,4.910254700000000128e+01
1.810000000000000000e+02,4.930533599999999694e+01
1.820000000000000000e+02,4.950812899999999672e+01
1.830000000000000000e+02,4.971092600000000061e+01
1.840000000000000000e+02,4.991372299999999740e+01
1.850000000000000000e+02,5.011651200000000017e+01
1.860000000000000000e+02,5.031929399999999930e+01
1.870000000000000000e+02,5.052206400000000031e+01
1.880000000000000000e+02,5.072482300000000066e+01
1.890000000000000000e+02,5.092756299999999925e+01
1.900000000000000000e+02,5.113028299999999859e+01
1.910000000000000000e+02,5.133298099999999664e+01
1.920000000000000000e+02,5.153565199999999891e+01
1.930000000000000000e+02,5.173829700000000287e+01
1.940000000000000000e+02,5.194091399999999936e+01
1.950000000000000000e+02,5.214349399999999690e+01
1.960000000000000000e+02,5.234604300000000165e+01
1.970000000000000000e+02,5.254854999999999876e+01
1.980000000000000000e+02,5.275101899999999944e+01
1.990000000000000000e+02,5.295344200000000257e+01
2.000000000000000000e+02,5.315582299999999805e+01
2.010000000000000000e+02,5.335815800000000309e+01
2.020000000000000000e+02,5.356044399999999683e+01
2.030000000000000000e+02,5.376267599999999902e+01
2.040000000000000000e+02,5.396485899999999702e+01
2.050000000000000000e+02,5.416698499999999683e+01
2.060000000000000000e+02,5.436905300000000096e+01
2.070000000000000000e+02,5.457106399999999979e+01
2.080000000000000000e+02,5.477301400000000342e+01
2.090000000000000000e+02,5.497489900000000063e+01
2.100000000000000000e+02,5.517672300000000263e+01
2.110000000000000000e+02,5.537848300000000279e+01
2.120000000000000000e+02,5.558017300000000205e+01
2.130000000000000000e+02,5.578179200000000293e+01
2.140000000000000000e+02,5.598334499999999991e+01
2.150000000000000000e+02,5.618482199999999693e+01
2.160000000000000000e+02,5.638622699999999810e+01
2.170000000000000000e+02,5.658755500000000183e+01
2.180000000000000000e+02,5.678880699999999848e+01
2.190000000000000000e+02,5.698998300000000228e+01
2.200000000000000000e+02,5.719107799999999742e+01
2.210000000000000000e+02,5.739209400000000016e+01
2.220000000000000000e+02,5.759302900000000136e+01
2.230000000000000000e+02,5.779387700000000194e+01
2.240000000000000000e+02,5.799464400000000097e+01
2.250000000000000000e+02,5.819532399999999939e+01
2.260000000000000000e+02,5.839591599999999971e+01
2.270000000000000000e+02,5.859642000000000195e+01
2.280000000000000000e+02,5.879683699999999646e+01
2.290000000000000000e+02,5.899716200000000299e+01
2.300000000000000000e+02,5.919739899999999722e+01
2.310000000000000000e+02,5.939754099999999681e+01
2.320000000000000000e+02,5.959759100000000132e+01
2.330000000000000000e+02,5.979754599999999698e+01
2.340000000000000000e+02,5.999741000000000213e+01
2.350000000000000000e+02,6.019716999999999985e+01
2.360000000000000000e+02,6.039683899999999994e+01
2.370000000000000000e+02,6.059640900000000130e+01
2.380000000000000000e+02,6.079587899999999934e+01
2.390000000000000000e+02,6.099525100000000322e+01
2.400000000000000000e+02,6.119452299999999667e+01
2.410000000000000000e+02,6.139368799999999737e+01
2.420000000000000000e+02,6.159275800000000345e+01
2.430000000000000000e+02,6.179172100000000256e+01
2.440000000000000000e+02,6.199058200000000340e+01
2.450000000000000000e+02,6.218933899999999682e+01
2.460000000000000000e+02,6.238798899999999747e+01
2.470000000000000000e+02,6.258653300000000286e+01
2.480000000000000000e+02,6.278497300000000081e+01
2.490000000000000000e+02,6.298330299999999937e+01
2.500000000000000000e+02,6.318153000000000219e+01
2.510000000000000000e+02,6.337964199999999693e+01
2.520000000000000000e+02,6.357765200000000050e+01
2.530000000000000000e+02,6.377554700000000310e+01
2.540000000000000000e+02,6.397333499999999873e+01
2.550000000000000000e+02,6.417101300000000208e+01
2.560000000000000000e+02,6.436857600000000446e+01
2.570000000000000000e+02,6.456602499999999623e+01
2.580000000000000000e+02,6.476336700000000235e+01
2.590000000000000000e+02,6.496059400000000039e+01
2.600000000000000000e+02,6.515771499999999605e+01
2.610000000000000000e+02,6.535471300000000383e+01
2.620000000000000000e+02,6.555159799999999848e+01
2.630000000000000000e+02,6.574836700000000178e+01
2.640000000000000000e+02,6.594502300000000616e+01
2.650000000000000000e+02,6.614156300000000499e+01
2.660000000000000000e+02,6.633798199999999667e+01
2.670000000000000000e+02,6.653429400000000271e+01
2.680000000000000000e+02,6.673048400000000413e+01
2.690000000000000000e+02,6.692655200000000093e+01
2.700000000000000000e+02,6.712250500000000386e+01
2.710000000000000000e+02,6.731834399999999619e+01
2.720000000000000000e+02,6.751406099999999810e+01
2.730000000000000000e+02,6.770965599999999540e+01
2.740000000000000000e+02,6.790513599999999883e+01
2.750000000000000000e+02,6.810049399999999764e+01
2.760000000000000000e+02,6.829573100000000352e+01
2.770000000000000000e+02,6.849085200000000384e+01
2.780000000000000000e+02,6.868585199999999702e+01
2.790000000000000000e+02,6.888072200000000578e+01
2.800000000000000000e+02,6.907548500000000047e+01
2.810000000000000000e+02,6.927011099999999999e+01
2.820000000000000000e+02,6.946462200000000564e+01
2.830000000000000000e+02,6.965901200000000415e+01
2.840000000000000000e+02,6.985327900000000056e+01
2.850000000000000000e+02,7.004742400000000657e+01
2.860000000000000000e+02,7.024143999999999721e+01
2.870000000000000000e+02,7.043534099999999398e+01
2.880000000000000000e+02,7.062911200000000633e+01
2.890000000000000000e+02,7.082276199999999733e+01
2.900000000000000000e+02,7.101628100000000643e+01
2.910000000000000000e+02,7.120968600000000492e+01
2.920000000000000000e+02,7.140296200000000226e+01
2.930000000000000000e+02,7.159610700000000350e+01
2.940000000000000000e+02,7.178913099999999758e+01
2.950000000000000000e+02,7.198203300000000127e+01
2.960000000000000000e+02,7.217481200000000285e+01
2.970000000000000000e+02,7.236746200000000329e+01
2.980000000000000000e+02,7.255998200000000509e+01
2.990000000000000000e+02,7.275238000000000227e+01
3.000000000000000000e+02,7.294464899999999830e+01
3.010000000000000000e+02,7.313679500000000644e+01
3.020000000000000000e+02,7.332881199999999922e+01
3.030000000000000000e+02,7.352070600000000411e+01
3.040000000000000000e+02,7.371246299999999962e+01
3.050000000000000000e+02,7.390410599999999874e+01
3.060000000000000000e+02,7.409561200000000269e+01
3.070000000000000000e+02,7.428699500000000455e+01
3.080000000000000000e+02,7.447824099999999703e+01
3.090000000000000000e+02,7.466936499999999910e+01
3.100000000000000000e+02,7.486036699999999655e+01
3.110000000000000000e+02,7.505123100000000136e+01
3.120000000000000000e+02,7.524197399999999902e+01
3.130000000000000000e+02,7.543257900000000404e+01
3.140000000000000000e+02,7.562306200000000445e+01
3.150000000000000000e+02,7.581341600000000369e+01
3.160000000000000000e+02,7.600363900000000683e+01
3.170000000000000000e+02,7.619373299999999460e+01
3.180000000000000000e+02,7.638370500000000618e+01
3.190000000000000000e+02,7.657353999999999417e+01
3.200000000000000000e+02,7.676324499999999773e+01
3.210000000000000000e+02,7.695282000000000266e+01
3.220000000000000000e+02,7.714227300000000298e+01
3.230000000000000000e+02,7.733158899999999392e+01
3.240000000000000000e+02,7.752077500000000043e+01
3.250000000000000000e+02,7.770983099999999411e+01
3.260000000000000000e+02,7.789875800000000083e+01
3.270000000000000000e+02,7.808755499999999472e+01
3.280000000000000000e+02,7.827622200000000419e+01
3.290000000000000000e+02,7.846475200000000427e+01
3.300000000000000000e+02,7.865315999999999974e+01
3.310000000000000000e+02,7.884143100000000004e+01
3.320000000000000000e+02,7.902957200000000171e+01
3.330000000000000000e+02,7.921758300000000474e+01
3.340000000000000000e+02,7.940546399999999494e+01
3.350000000000000000e+02,7.959321599999999819e+01
3.360000000000000000e+02,7.978082999999999458e+01
3.370000000000000000e+02,7.996831500000000403e+01
3.380000000000000000e+02,8.015567000000000064e+01
3.390000000000000000e+02,8.034289599999999609e+01
3.400000000000000000e+02,8.052998399999999890e+01
3.410000000000000000e+02,8.071694200000000308e+01
3.420000000000000000e+02,8.090376999999999441e+01
3.430000000000000000e+02,8.109046200000000226e+01
3.440000000000000000e+02,8.127702299999999980e+01
3.450000000000000000e+02,8.146345499999999618e+01
3.460000000000000000e+02,8.164975699999999392e+01
3.470000000000000000e+02,8.183592199999999650e+01
3.480000000000000000e+02,8.202195000000000391e+01
3.490000000000000000e+02,8.220784799999999848e+01
3.500000000000000000e+02,8.239361599999999441e+01
3.510000000000000000e+02,8.257925400000000593e+01
3.520000000000000000e+02,8.276475499999999386e+01
3.530000000000000000e+02,8.295011900000000082e+01
3.540000000000000000e+02,8.313536100000000317e+01
3.550000000000000000e+02,8.332045700000000465e+01
3.560000000000000000e+02,8.350543199999999899e+01
3.570000000000000000e+02,8.369026200000000415e+01
3.580000000000000000e+02,8.387496899999999300e+01
3.590000000000000000e+02,8.405953200000000436e+01
3.600000000000000000e+02,8.424397299999999689e+01
3.610000000000000000e+02,8.442826800000000276e+01
3.620000000000000000e+02,8.461243399999999326e+01
3.630000000000000000e+02,8.479647099999999682e+01
3.640000000000000000e+02,8.498036999999999352e+01
3.650000000000000000e+02,8.516413099999999758e+01
3.660000000000000000e+02,8.534776300000000049e+01
3.670000000000000000e+02,8.553126500000000476e+01
3.680000000000000000e+02,8.571462200000000564e+01
3.690000000000000000e+02,8.589785000000000537e+01
3.700000000000000000e+02,8.608094800000000646e+01
3.710000000000000000e+02,8.626390100000000416e+01
3.720000000000000000e+02,8.644672400000000323e+01
3.730000000000000000e+02,8.662941700000000367e+01
3.740000000000000000e+02,8.681196599999999819e+01
3.750000000000000000e+02,8.699438499999999408e+01
3.760000000000000000e+02,8.717666599999999733e+01
3.770000000000000000e+02,8.735881799999999942e+01
3.780000000000000000e+02,8.754083300000000634e+01
3.790000000000000000e+02,8.772270199999999818e+01
3.800000000000000000e+02,8.790444899999999961e+01
3.810000000000000000e+02,8.808605199999999513e+01
3.820000000000000000e+02,8.826752500000000623e+01
3.830000000000000000e+02,8.844885299999999972e+01
3.840000000000000000e+02,8.863005099999999459e+01
3.850000000000000000e+02,8.881111099999999681e+01
3.860000000000000000e+02,8.899203500000000133e+01
3.870000000000000000e+02,8.917282899999999302e+01
3.880000000000000000e+02,8.935347699999999804e+01
3.890000000000000000e+02,8.953399699999999939e+01
3.900000000000000000e+02,8.971437099999999987e+01
3.910000000000000000e+02,8.989461500000000171e+01
3.920000000000000000e+02,9.007472199999999418e+01
3.930000000000000000e+02,9.025468399999999747e+01
3.940000000000000000e+02,9.043451699999999960e+01
3.950000000000000000e+02,9.061420400000000086e+01
3.960000000000000000e+02,9.079376200000000097e+01
3.970000000000000000e+02,9.097317499999999768e+01
3.980000000000000000e+02,9.115245799999999576e+01
3.990000000000000000e+02,9.133159600000000466e+01
4.000000000000000000e+02,9.151060499999999820e+01
4.010000000000000000e+02,9.168946800000000508e+01
4.020000000000000000e+02,9.186819500000000005e+01
4.030000000000000000e+02,9.204678300000000490e+01
4.040000000000000000e+02,9.222522700000000384e+01
4.050000000000000000e+02,9.240354200000000162e+01
4.060000000000000000e+02,9.258171099999999853e+01
4.070000000000000000e+02,9.275974300000000028e+01
4.080000000000000000e+02,9.293762999999999863e+01
4.090000000000000000e+02,9.311538699999999835e+01
4.100000000000000000e+02,9.329299899999999468e+01
4.110000000000000000e+02,9.347047399999999584e+01
4.120000000000000000e+02,9.364780399999999361e+01
4.130000000000000000e+02,9.382499699999999621e+01
4.140000000000000000e+02,9.400205200000000616e+01
4.150000000000000000e+02,9.417896299999999599e+01
4.160000000000000000e+02,9.435572799999999916e+01
4.170000000000000000e+02,9.453236400000000117e+01
4.180000000000000000e+02,9.470884700000000578e+01
4.190000000000000000e+02,9.488519300000000101e+01
4.200000000000000000e+02,9.506140100000000359e+01
4.210000000000000000e+02,9.523746500000000026e+01
4.220000000000000000e+02,9.541338299999999606e+01
4.230000000000000000e+02,9.558916499999999417e+01
4.240000000000000000e+02,9.576480100000000562e+01
4.250000000000000000e+02,9.594029199999999946e+01
4.260000000000000000e+02,9.611564599999999814e+01
4.270000000000000000e+02,9.629085499999999342e+01
4.280000000000000000e+02,9.646591899999999953e+01
4.290000000000000000e+02,9.664083899999999971e+01
4.300000000000000000e+02,9.681561999999999557e+01
4.310000000000000000e+02,9.699025000000000318e+01
4.320000000000000000e+02,9.716474200000000394e+01
4.330000000000000000e+02,9.733908800000000383e+01
4.340000000000000000e+02,9.751328300000000127e+01
4.350000000000000000e+02,9.768734000000000606e+01
4.360000000000000000e+02,9.786125199999999325e+01
4.370000000000000000e+02,9.803501099999999724e+01
4.380000000000000000e+02,9.820863300000000606e+01
4.390000000000000000e+02,9.838210300000000075e+01
4.400000000000000000e+02,9.855542800000000625e+01
4.410000000000000000e+02,9.872860699999999667e+01
4.420000000000000000e+02,9.890164199999999539e+01
4.430000000000000000e+02,9.907452399999999670e+01
4.440000000000000000e+02,9.924726099999999462e+01
4.450000000000000000e+02,9.941985300000000336e+01
4.460000000000000000e+02,9.959229299999999796e+01
4.470000000000000000e+02,9.976457999999999515e+01
4.480000000000000000e+02,9.993672899999999970e+01
4.490000000000000000e+02,1.001087200000000053e+02
4.500000000000000000e+02,1.002805699999999973e+02
4.510000000000000000e+02,1.004522599999999954e+02
4.520000000000000000e+02,1.006238100000000060e+02
4.530000000000000000e+02,1.007951999999999941e+02
4.540000000000000000e+02,1.009664499999999947e+02
4.550000000000000000e+02,1.011375400000000013e+02
4.560000000000000000e+02,1.013084800000000030e+02
4.570000000000000000e+02,1.014792699999999996e+02
4.580000000000000000e+02,1.016499100000000055e+02
4.590000000000000000e+02,1.018204000000000065e+02
4.600000000000000000e+02,1.019907199999999960e+02
4.610000000000000000e+02,1.021608999999999980e+02
4.620000000000000000e+02,1.023309299999999951e+02
4.630000000000000000e+02,1.025007999999999981e+02
4.640000000000000000e+02,1.026705199999999962e+02
4.650000000000000000e+02,1.028400800000000004e+02
4.660000000000000000e+02,1.030094799999999964e+02
4.670000000000000000e+02,1.031787300000000016e+02
4.680000000000000000e+02,1.033478300000000019e+02
4.690000000000000000e+02,1.035167699999999940e+02
4.700000000000000000e+02,1.036855500000000063e+02
4.710000000000000000e+02,1.038541699999999963e+02
4.720000000000000000e+02,1.040226399999999956e+02
4.730000000000000000e+02,1.041909399999999977e+02
4.740000000000000000e+02,1.043590899999999948e+02
4.750000000000000000e+02,1.045270799999999980e+02
4.760000000000000000e+02,1.046949199999999962e+02
4.770000000000000000e+02,1.048625799999999941e+02
4.780000000000000000e+02,1.050300900000000013e+02
4.790000000000000000e+02,1.051974299999999971e+02
4.800000000000000000e+02,1.053646200000000022e+02
4.810000000000000000e+02,1.055316499999999991e+02
4.820000000000000000e+02,1.056985099999999989e+02
4.830000000000000000e+02,1.058652000000000015e+02
4.840000000000000000e+02,1.060317399999999992e+02
4.850000000000000000e+02,1.061980999999999966e+02
4.860000000000000000e+02,1.063643100000000032e+02
4.870000000000000000e+02,1.065303499999999985e+02
4.880000000000000000e+02,1.066962199999999967e+02
4.890000000000000000e+02,1.068619300000000010e+02
4.900000000000000000e+02,1.070274699999999939e+02
4.910000000000000000e+02,1.071928400000000039e+02
4.920000000000000000e+02,1.073580400000000026e+02
4.930000000000000000e+02,1.075230799999999931e+02
4.940000000000000000e+02,1.076879399999999976e+02
4.950000000000000000e+02,1.078526399999999938e+02
4.960000000000000000e+02,1.080171600000000041e+02
4.970000000000000000e+02,1.081815100000000029e+02
4.980000000000000000e+02,1.083456999999999937e+02
4.990000000000000000e+02,1.085096999999999952e+02
5.000000000000000000e+02,1.086735400000000027e+02
5.010000000000000000e+02,1.088371999999999957e+02
5.020000000000000000e+02,1.090006900000000059e+02
5.030000000000000000e+02,1.091640000000000015e+02
5.040000000000000000e+02,1.093271299999999968e+02
5.050000000000000000e+02,1.094900899999999950e+02
5.060000000000000000e+02,1.096528699999999930e+02
5.070000000000000000e+02,1.098154799999999938e+02
5.080000000000000000e+02,1.099779000000000053e+02
5.090000000000000000e+02,1.101401400000000024e+02
5.100000000000000000e+02,1.103022100000000023e+02
5.110000000000000000e+02,1.104641000000000020e+02
5.120000000000000000e+02,1.106257999999999981e+02
5.130000000000000000e+02,1.107873199999999940e+02
5.140000000000000000e+02,1.109486500000000007e+02
5.150000000000000000e+02,1.111098000000000070e+02
5.160000000000000000e+02,1.112707699999999988e+02
5.170000000000000000e+02,1.114315600000000046e+02
5.180000000000000000e+02,1.115921500000000037e+02
5.190000000000000000e+02,1.117525600000000026e+02
5.200000000000000000e+02,1.119127699999999948e+02
5.210000000000000000e+02,1.120728100000000040e+02
5.220000000000000000e+02,1.122326500000000067e+02
5.230000000000000000e+02,1.123923000000000059e+02
5.240000000000000000e+02,1.125517600000000016e+02
5.250000000000000000e+02,1.127110200000000049e+02
5.260000000000000000e+02,1.128700900000000047e+02
5.270000000000000000e+02,1.130289800000000042e+02
5.280000000000000000e+02,1.131876599999999939e+02
5.290000000000000000e+02,1.133461499999999944e+02
5.300000000000000000e+02,1.135044400000000024e+02
5.310000000000000000e+02,1.136625300000000038e+02
5.320000000000000000e+02,1.138204300000000018e+02
5.330000000000000000e+02,1.139781200000000041e+02
5.340000000000000000e+02,1.141356099999999998e+02
5.350000000000000000e+02,1.142929100000000062e+02
5.360000000000000000e+02,1.144500000000000028e+02
5.370000000000000000e+02,1.146068800000000039e+02
5.380000000000000000e+02,1.147635700000000014e+02
5.390000000000000000e+02,1.149200400000000002e+02
5.400000000000000000e+02,1.150763100000000065e+02
5.410000000000000000e+02,1.152323700000000031e+02
5.420000000000000000e+02,1.153882100000000008e+02
5.430000000000000000e+02,1.155438599999999951e+02
5.440000000000000000e+02,1.156992999999999938e+02
5.450000000000000000e+02,1.158545100000000048e+02
5.460000000000000000e+02,1.160095100000000059e+02
5.470000000000000000e+02,1.161643100000000004e+02
5.480000000000000000e+02,1.163188899999999961e+02
5.490000000000000000e+02,1.164732400000000041e+02
5.500000000000000000e+02,1.166273900000000054e+02
5.510000000000000000e+02,1.167813100000000048e+02
5.520000000000000000e+02,1.169350100000000054e+02
5.530000000000000000e+02,1.170884999999999962e+02
5.540000000000000000e+02,1.172417599999999993e+02
5.550000000000000000e+02,1.173948000000000036e+02
5.560000000000000000e+02,1.175476100000000059e+02
5.570000000000000000e+02,1.177001999999999953e+02
5.580000000000000000e+02,1.178525599999999969e+02
5.590000000000000000e+02,1.180046899999999965e+02
5.600000000000000000e+02,1.181565899999999942e+02
5.610000000000000000e+02,1.183082699999999932e+02
5.620000000000000000e+02,1.184597100000000012e+02
5.630000000000000000e+02,1.186109199999999930e+02
5.640000000000000000e+02,1.187618899999999940e+02
5.650000000000000000e+02,1.189126200000000040e+02
5.660000000000000000e+02,1.190631300000000010e+02
5.670000000000000000e+02,1.192133900000000040e+02
5.680000000000000000e+02,1.193633999999999986e+02
5.690000000000000000e+02,1.195131899999999945e+02
5.700000000000000000e+02,1.196627299999999963e+02
5.710000000000000000e+02,1.198120299999999929e+02
5.720000000000000000e+02,1.199610700000000065e+02
5.730000000000000000e+02,1.201098800000000040e+02
5.740000000000000000e+02,1.202584399999999931e+02
5.750000000000000000e+02,1.204067500000000024e+02
5.760000000000000000e+02,1.205548000000000002e+02
5.770000000000000000e+02,1.207026100000000071e+02
5.780000000000000000e+02,1.208501600000000025e+02
5.790000000000000000e+02,1.209974600000000038e+02
5.800000000000000000e+02,1.211444999999999936e+02
5.810000000000000000e+02,1.212912900000000036e+02
5.820000000000000000e+02,1.214378099999999989e+02
5.830000000000000000e+02,1.215840800000000002e+02
5.840000000000000000e+02,1.217300800000000010e+02
5.850000000000000000e+02,1.218758200000000045e+02
5.860000000000000000e+02,1.220212999999999965e+02
5.870000000000000000e+02,1.221665100000000024e+02
5.880000000000000000e+02,1.223114499999999936e+02
5.890000000000000000e+02,1.224561199999999985e+02
5.900000000000000000e+02,1.226005200000000031e+02
5.910000000000000000e+02,1.227446599999999961e+02
5.920000000000000000e+02,1.228885099999999966e+02
5.930000000000000000e+02,1.230320999999999998e+02
5.940000000000000000e+02,1.231753999999999962e+02
5.950000000000000000e+02,1.233184300000000064e+02
5.960000000000000000e+02,1.234611699999999956e+02
5.970000000000000000e+02,1.236036399999999986e+02
5.980000000000000000e+02,1.237458199999999948e+02
5.990000000000000000e+02,1.238877200000000016e+02