# Time [s], Temperature [C]
1.000000000000000000e+00,2.500000000000000000e+01
2.000000000000000000e+00,2.500000000000000000e+01
3.000000000000000000e+00,2.500000000000000000e+01
4.000000000000000000e+00,2.500000199999999850e+01
5.000000000000000000e+00,2.500000999999999962e+01
6.000000000000000000e+00,2.500005900000000025e+01
7.000000000000000000e+00,2.500025700000000128e+01
8.000000000000000000e+00,2.500091600000000014e+01
9.000000000000000000e+00,2.500271800000000155e+01
1.000000000000000000e+01,2.500698900000000080e+01
1.100000000000000000e+01,2.501592799999999883e+01
1.200000000000000000e+01,2.503280300000000125e+01
1.300000000000000000e+01,2.506201599999999985e+01
1.400000000000000000e+01,2.510904499999999828e+01
1.500000000000000000e+01,2.518026899999999912e+01
1.600000000000000000e+01,2.528273599999999988e+01
1.700000000000000000e+01,2.542387199999999936e+01
1.800000000000000000e+01,2.561120999999999981e+01
1.900000000000000000e+01,2.585214799999999968e+01
2.000000000000000000e+01,2.615369000000000099e+01
2.100000000000000000e+01,2.652229699999999823e+01
2.200000000000000000e+01,2.696370500000000092e+01
2.300000000000000000e+01,2.748284299999999902e+01
2.400000000000000000e+01,2.808370400000000089e+01
2.500000000000000000e+01,2.876942599999999928e+01
2.600000000000000000e+01,2.954226099999999988e+01
2.700000000000000000e+01,3.040359099999999870e+01
2.800000000000000000e+01,3.135407400000000067e+01
2.900000000000000000e+01,3.239379100000000022e+01
3.000000000000000000e+01,3.352222400000000135e+01
3.100000000000000000e+01,3.473842599999999692e+01
3.200000000000000000e+01,3.604108399999999790e+01
3.300000000000000000e+01,3.742862300000000175e+01
3.400000000000000000e+01,3.889935700000000196e+01
3.500000000000000000e+01,4.046056699999999751e+01
3.600000000000000000e+01,4.209624500000000324e+01
3.700000000000000000e+01,4.380764400000000336e+01
3.800000000000000000e+01,4.559326599999999985e+01
3.900000000000000000e+01,4.745063400000000087e+01
4.000000000000000000e+01,4.937753699999999668e+01
4.100000000000000000e+01,5.137155500000000075e+01
4.200000000000000000e+01,5.343046999999999969e+01
4.300000000000000000e+01,5.555209700000000339e+01
4.400000000000000000e+01,5.773410799999999909e+01
4.500000000000000000e+01,5.997458999999999918e+01
4.600000000000000000e+01,6.227138099999999810e+01
4.700000000000000000e+01,6.462222300000000530e+01
4.800000000000000000e+01,6.702524599999999566e+01
4.900000000000000000e+01,6.947858399999999790e+01
5.000000000000000000e+01,7.198023200000000088e+01
5.100000000000000000e+01,7.452841899999999953e+01
5.200000000000000000e+01,7.712136099999999317e+01
5.300000000000000000e+01,7.975716400000000306e+01
5.400000000000000000e+01,8.243430299999999988e+01
5.500000000000000000e+01,8.515100900000000195e+01
5.600000000000000000e+01,8.790543399999999963e+01
5.700000000000000000e+01,9.069583900000000654e+01
5.800000000000000000e+01,9.352056899999999473e+01
5.900000000000000000e+01,9.637805899999999326e+01
6.000000000000000000e+01,9.926673900000000117e+01
6.100000000000000000e+01,1.021884100000000046e+02
6.200000000000000000e+01,1.051371500000000054e+02
6.300000000000000000e+01,1.081125300000000067e+02
6.400000000000000000e+01,1.111132599999999968e+02
6.500000000000000000e+01,1.141383500000000026e+02
6.600000000000000000e+01,1.171863599999999934e+02
6.700000000000000000e+01,1.202560699999999940e+02
6.800000000000000000e+01,1.233465400000000045e+02
6.900000000000000000e+01,1.264565099999999944e+02
7.000000000000000000e+01,1.295848200000000077e+02
7.100000000000000000e+01,1.327301300000000026e+02
7.200000000000000000e+01,1.358916600000000017e+02
7.300000000000000000e+01,1.390683699999999874e+02
7.400000000000000000e+01,1.422591199999999958e+02
7.500000000000000000e+01,1.454627199999999903e+02
7.600000000000000000e+01,1.486780500000000131e+02
7.700000000000000000e+01,1.519039199999999994e+02
7.800000000000000000e+01,1.551390399999999943e+02
7.900000000000000000e+01,1.583824199999999962e+02
8.000000000000000000e+01,1.616328300000000127e+02
8.100000000000000000e+01,1.648894300000000044e+02
8.200000000000000000e+01,1.681514899999999955e+02
8.300000000000000000e+01,1.714182000000000130e+02
8.400000000000000000e+01,1.746888299999999958e+02
8.500000000000000000e+01,1.779624499999999898e+02
8.600000000000000000e+01,1.812381300000000124e+02
8.700000000000000000e+01,1.845146499999999889e+02
8.800000000000000000e+01,1.877909899999999936e+02
8.900000000000000000e+01,1.910662499999999966e+02
9.000000000000000000e+01,1.943392900000000054e+02
9.100000000000000000e+01,1.976093600000000094e+02
9.200000000000000000e+01,2.008762499999999989e+02
9.300000000000000000e+01,2.041396200000000078e+02
9.400000000000000000e+01,2.073990599999999915e+02
9.500000000000000000e+01,2.106535599999999988e+02
9.600000000000000000e+01,2.139017200000000116e+02
9.700000000000000000e+01,2.171419799999999896e+02
9.800000000000000000e+01,2.203730500000000063e+02
9.900000000000000000e+01,2.235936299999999903e+02
1.000000000000000000e+02,2.268025800000000061e+02
1.010000000000000000e+02,2.299989600000000110e+02
1.020000000000000000e+02,2.331819500000000005e+02
1.030000000000000000e+02,2.363507099999999923e+02
1.040000000000000000e+02,2.395043900000000008e+02
1.050000000000000000e+02,2.426420400000000086e+02
1.060000000000000000e+02,2.457625600000000077e+02
1.070000000000000000e+02,2.488646500000000117e+02
1.080000000000000000e+02,2.519465500000000020e+02
1.090000000000000000e+02,2.550065800000000138e+02
1.100000000000000000e+02,2.580425700000000120e+02
1.110000000000000000e+02,2.610527000000000157e+02
1.120000000000000000e+02,2.640348200000000247e+02
1.130000000000000000e+02,2.669871499999999855e+02
1.140000000000000000e+02,2.699077800000000025e+02
1.150000000000000000e+02,2.727948900000000094e+02
1.160000000000000000e+02,2.756478900000000181e+02
1.170000000000000000e+02,2.784638100000000236e+02
1.180000000000000000e+02,2.812434700000000021e+02
1.190000000000000000e+02,2.839856300000000147e+02
1.200000000000000000e+02,2.866854599999999778e+02
1.210000000000000000e+02,2.893357199999999807e+02
1.220000000000000000e+02,2.919302400000000262e+02
1.230000000000000000e+02,2.944655799999999886e+02
1.240000000000000000e+02,2.969392100000000028e+02
1.250000000000000000e+02,2.993492400000000089e+02
1.260000000000000000e+02,3.016931200000000217e+02
1.270000000000000000e+02,3.039679300000000239e+02
1.280000000000000000e+02,3.061701699999999846e+02
1.290000000000000000e+02,3.082963599999999929e+02
1.300000000000000000e+02,3.103429600000000050e+02
1.310000000000000000e+02,3.123069800000000100e+02
1.320000000000000000e+02,3.141863999999999919e+02
1.330000000000000000e+02,3.159801899999999932e+02
1.340000000000000000e+02,3.176884499999999889e+02
1.350000000000000000e+02,3.193120999999999867e+02
1.360000000000000000e+02,3.208532099999999900e+02
1.370000000000000000e+02,3.223143900000000031e+02
1.380000000000000000e+02,3.237382499999999936e+02
1.390000000000000000e+02,3.250840799999999717e+02
1.400000000000000000e+02,3.263618799999999851e+02
1.410000000000000000e+02,3.275671100000000138e+02
1.420000000000000000e+02,3.286966199999999958e+02
1.430000000000000000e+02,3.297587300000000141e+02
1.440000000000000000e+02,3.307676399999999717e+02
1.450000000000000000e+02,3.317354100000000017e+02
1.460000000000000000e+02,3.326692800000000148e+02
1.470000000000000000e+02,3.335746800000000007e+02
1.480000000000000000e+02,3.344552899999999909e+02
1.490000000000000000e+02,3.353146100000000160e+02
1.500000000000000000e+02,3.361565200000000004e+02
1.510000000000000000e+02,3.369848000000000070e+02
1.520000000000000000e+02,3.378038000000000238e+02
1.530000000000000000e+02,3.386178300000000263e+02
1.540000000000000000e+02,3.394308199999999829e+02
1.550000000000000000e+02,3.402463399999999751e+02
1.560000000000000000e+02,3.410668000000000006e+02
1.570000000000000000e+02,3.418943800000000124e+02
1.580000000000000000e+02,3.429428700000000276e+02
1.590000000000000000e+02,3.438827200000000062e+02
1.600000000000000000e+02,3.447654400000000123e+02
1.610000000000000000e+02,3.456152999999999906e+02
1.620000000000000000e+02,3.464593199999999911e+02
1.630000000000000000e+02,3.473309300000000235e+02
1.640000000000000000e+02,3.482376399999999990e+02
1.650000000000000000e+02,3.491752000000000180e+02
1.660000000000000000e+02,3.501405300000000125e+02
1.670000000000000000e+02,3.511315000000000168e+02
1.680000000000000000e+02,3.521478599999999801e+02
1.690000000000000000e+02,3.531908000000000243e+02
1.700000000000000000e+02,3.542627899999999954e+02
1.710000000000000000e+02,3.553670700000000124e+02
1.720000000000000000e+02,3.565058000000000220e+02
1.730000000000000000e+02,3.576808199999999829e+02
1.740000000000000000e+02,3.588938299999999799e+02
1.750000000000000000e+02,3.601467000000000098e+02
1.760000000000000000e+02,3.614420499999999947e+02
1.770000000000000000e+02,3.627821999999999889e+02
1.780000000000000000e+02,3.641698900000000094e+02
1.790000000000000000e+02,3.656111799999999903e+02
1.800000000000000000e+02,3.679137000000000057e+02
1.810000000000000000e+02,3.695308200000000056e+02
1.820000000000000000e+02,3.710202899999999886e+02
1.830000000000000000e+02,3.726285100000000057e+02
1.840000000000000000e+02,3.744315500000000156e+02
1.850000000000000000e+02,3.763659400000000232e+02
1.860000000000000000e+02,3.784352999999999838e+02
1.870000000000000000e+02,3.806413900000000012e+02
1.880000000000000000e+02,3.830005199999999945e+02
1.890000000000000000e+02,3.855319499999999948e+02
1.900000000000000000e+02,3.882599200000000224e+02
1.910000000000000000e+02,3.912122200000000021e+02
1.920000000000000000e+02,3.944266400000000203e+02
1.930000000000000000e+02,3.979510799999999904e+02
1.940000000000000000e+02,4.018455799999999840e+02
1.950000000000000000e+02,4.061842300000000137e+02
1.960000000000000000e+02,4.110508699999999749e+02
1.970000000000000000e+02,4.165350000000000250e+02
1.980000000000000000e+02,4.226926000000000272e+02
1.990000000000000000e+02,4.295100699999999847e+02
2.000000000000000000e+02,4.367767000000000053e+02
2.010000000000000000e+02,4.440108599999999797e+02
2.020000000000000000e+02,4.505459599999999796e+02
2.030000000000000000e+02,4.565230399999999804e+02
2.040000000000000000e+02,4.621379699999999957e+02
2.050000000000000000e+02,4.674726600000000190e+02
2.060000000000000000e+02,4.725805399999999850e+02
2.070000000000000000e+02,4.774962499999999750e+02
2.080000000000000000e+02,4.822466099999999756e+02
2.090000000000000000e+02,4.868507999999999925e+02
2.100000000000000000e+02,4.913241600000000062e+02
2.110000000000000000e+02,4.956799300000000130e+02
2.120000000000000000e+02,4.999287100000000237e+02
2.130000000000000000e+02,5.040783999999999878e+02
2.140000000000000000e+02,5.081365700000000061e+02
2.150000000000000000e+02,5.121100500000000011e+02
2.160000000000000000e+02,5.160048199999999952e+02
2.170000000000000000e+02,5.198256199999999581e+02
2.180000000000000000e+02,5.235761099999999715e+02
2.190000000000000000e+02,5.272603100000000040e+02
2.200000000000000000e+02,5.308820200000000114e+02
2.210000000000000000e+02,5.344444600000000491e+02
2.220000000000000000e+02,5.379507399999999961e+02
2.230000000000000000e+02,5.414028899999999567e+02
2.240000000000000000e+02,5.448028600000000097e+02
2.250000000000000000e+02,5.481535599999999704e+02
2.260000000000000000e+02,5.514567299999999932e+02
2.270000000000000000e+02,5.547144200000000183e+02
2.280000000000000000e+02,5.579276700000000346e+02
2.290000000000000000e+02,5.610983899999999949e+02
2.300000000000000000e+02,5.642281500000000278e+02
2.310000000000000000e+02,5.673178699999999708e+02
2.320000000000000000e+02,5.703685299999999643e+02
2.330000000000000000e+02,5.733820799999999736e+02
2.340000000000000000e+02,5.763586999999999989e+02
2.350000000000000000e+02,5.793002900000000182e+02
2.360000000000000000e+02,5.822067299999999932e+02
2.370000000000000000e+02,5.850792199999999639e+02
2.380000000000000000e+02,5.879186399999999821e+02
2.390000000000000000e+02,5.907257700000000114e+02
2.400000000000000000e+02,5.935009199999999510e+02
2.410000000000000000e+02,5.962450000000000045e+02
2.420000000000000000e+02,5.989587400000000343e+02
2.430000000000000000e+02,6.016422099999999773e+02
2.440000000000000000e+02,6.042960799999999608e+02
2.450000000000000000e+02,6.069213899999999740e+02
2.460000000000000000e+02,6.095178799999999910e+02
2.470000000000000000e+02,6.120867299999999886e+02
2.480000000000000000e+02,6.146275000000000546e+02
2.490000000000000000e+02,6.171416000000000395e+02
2.500000000000000000e+02,6.196286599999999680e+02
2.510000000000000000e+02,6.220891100000000051e+02
2.520000000000000000e+02,6.245235000000000127e+02
2.530000000000000000e+02,6.269321899999999914e+02
2.540000000000000000e+02,6.293153700000000299e+02
2.550000000000000000e+02,6.316732799999999770e+02
2.560000000000000000e+02,6.340064099999999598e+02
2.570000000000000000e+02,6.363151199999999790e+02
2.580000000000000000e+02,6.385993700000000217e+02
2.590000000000000000e+02,6.408597399999999880e+02
2.600000000000000000e+02,6.430964999999999918e+02
2.610000000000000000e+02,6.453095700000000079e+02
2.620000000000000000e+02,6.474996300000000247e+02
2.630000000000000000e+02,6.496666900000000169e+02
2.640000000000000000e+02,6.518111000000000104e+02
2.650000000000000000e+02,6.539331100000000561e+02
2.660000000000000000e+02,6.560326499999999896e+02
2.670000000000000000e+02,6.581102300000000014e+02
2.680000000000000000e+02,6.601662000000000035e+02
2.690000000000000000e+02,6.622008100000000468e+02
2.700000000000000000e+02,6.642135600000000295e+02
2.710000000000000000e+02,6.662050799999999526e+02
2.720000000000000000e+02,6.681758399999999938e+02
2.730000000000000000e+02,6.701257299999999759e+02
2.740000000000000000e+02,6.720554200000000264e+02
2.750000000000000000e+02,6.739646599999999808e+02
2.760000000000000000e+02,6.758537599999999657e+02
2.770000000000000000e+02,6.777226000000000568e+02
2.780000000000000000e+02,6.795718399999999519e+02
2.790000000000000000e+02,6.814016100000000051e+02
2.800000000000000000e+02,6.832119099999999889e+02
2.810000000000000000e+02,6.850031099999999924e+02
2.820000000000000000e+02,6.867751500000000533e+02
2.830000000000000000e+02,6.885283799999999701e+02
2.840000000000000000e+02,6.902631199999999581e+02
2.850000000000000000e+02,6.919794299999999794e+02
2.860000000000000000e+02,6.936773100000000341e+02
2.870000000000000000e+02,6.953572400000000471e+02
2.880000000000000000e+02,6.970190999999999804e+02
2.890000000000000000e+02,6.986632700000000114e+02
2.900000000000000000e+02,7.002897900000000391e+02
2.910000000000000000e+02,7.018989900000000262e+02
2.920000000000000000e+02,7.034908400000000483e+02
2.930000000000000000e+02,7.050656099999999924e+02
2.940000000000000000e+02,7.066234699999999975e+02
2.950000000000000000e+02,7.081646700000000010e+02
2.960000000000000000e+02,7.096892100000000028e+02
2.970000000000000000e+02,7.111971399999999903e+02
2.980000000000000000e+02,7.126888999999999896e+02
2.990000000000000000e+02,7.141647299999999632e+02
3.000000000000000000e+02,7.156245099999999866e+02
3.010000000000000000e+02,7.170684199999999464e+02
3.020000000000000000e+02,7.184967699999999695e+02
3.030000000000000000e+02,7.199094800000000305e+02
3.040000000000000000e+02,7.213069500000000289e+02
3.050000000000000000e+02,7.226891500000000406e+02
3.060000000000000000e+02,7.240565199999999777e+02
3.070000000000000000e+02,7.254086899999999787e+02
3.080000000000000000e+02,7.267462799999999561e+02
3.090000000000000000e+02,7.280692699999999604e+02
3.100000000000000000e+02,7.293776900000000296e+02
3.110000000000000000e+02,7.306720000000000255e+02
3.120000000000000000e+02,7.319522100000000364e+02
3.130000000000000000e+02,7.332182000000000244e+02
3.140000000000000000e+02,7.344703399999999647e+02
3.150000000000000000e+02,7.357087400000000343e+02
3.160000000000000000e+02,7.369335300000000188e+02
3.170000000000000000e+02,7.381449000000000069e+02
3.180000000000000000e+02,7.393428999999999860e+02
3.190000000000000000e+02,7.405276499999999942e+02
3.200000000000000000e+02,7.416993999999999687e+02
3.210000000000000000e+02,7.428582199999999602e+02
3.220000000000000000e+02,7.440042099999999436e+02
3.230000000000000000e+02,7.451375100000000202e+02
3.240000000000000000e+02,7.462582999999999629e+02
3.250000000000000000e+02,7.473667000000000371e+02
3.260000000000000000e+02,7.484627699999999777e+02
3.270000000000000000e+02,7.495467499999999745e+02
3.280000000000000000e+02,7.506185900000000402e+02
3.290000000000000000e+02,7.516786499999999478e+02
3.300000000000000000e+02,7.527268699999999626e+02
3.310000000000000000e+02,7.537634299999999712e+02
3.320000000000000000e+02,7.547884500000000116e+02
3.330000000000000000e+02,7.558020000000000209e+02
3.340000000000000000e+02,7.568042599999999993e+02
3.350000000000000000e+02,7.577952299999999468e+02
3.360000000000000000e+02,7.587752699999999777e+02
3.370000000000000000e+02,7.597441999999999780e+02
3.380000000000000000e+02,7.607024499999999989e+02
3.390000000000000000e+02,7.616499000000000024e+02
3.400000000000000000e+02,7.625866099999999506e+02
3.410000000000000000e+02,7.635130000000000337e+02
3.420000000000000000e+02,7.644289599999999609e+02
3.430000000000000000e+02,7.653345299999999725e+02
3.440000000000000000e+02,7.662300400000000309e+02
3.450000000000000000e+02,7.671154199999999719e+02
3.460000000000000000e+02,7.679907799999999725e+02
3.470000000000000000e+02,7.688563799999999446e+02
3.480000000000000000e+02,7.697122200000000021e+02
3.490000000000000000e+02,7.705583500000000186e+02
3.500000000000000000e+02,7.713950800000000072e+02
3.510000000000000000e+02,7.722222299999999677e+02
3.520000000000000000e+02,7.730400399999999763e+02
3.530000000000000000e+02,7.738485699999999952e+02
3.540000000000000000e+02,7.746480099999999993e+02
3.550000000000000000e+02,7.754384199999999510e+02
3.560000000000000000e+02,7.762197899999999890e+02
3.570000000000000000e+02,7.769923099999999749e+02
3.580000000000000000e+02,7.777560999999999467e+02
3.590000000000000000e+02,7.785112299999999550e+02
3.600000000000000000e+02,7.792577499999999873e+02
3.610000000000000000e+02,7.799958500000000186e+02
3.620000000000000000e+02,7.807254599999999982e+02
3.630000000000000000e+02,7.814468399999999519e+02
3.640000000000000000e+02,7.821600300000000061e+02
3.650000000000000000e+02,7.828650499999999965e+02
3.660000000000000000e+02,7.835620699999999488e+02
3.670000000000000000e+02,7.842510999999999513e+02
3.680000000000000000e+02,7.849323100000000295e+02
3.690000000000000000e+02,7.856056499999999687e+02
3.700000000000000000e+02,7.862714200000000346e+02
3.710000000000000000e+02,7.869295700000000124e+02
3.720000000000000000e+02,7.875801400000000285e+02
3.730000000000000000e+02,7.882232699999999568e+02
3.740000000000000000e+02,7.888590100000000120e+02
3.750000000000000000e+02,7.894874899999999798e+02
3.760000000000000000e+02,7.901088300000000118e+02
3.770000000000000000e+02,7.907229599999999436e+02
3.780000000000000000e+02,7.913301999999999907e+02
3.790000000000000000e+02,7.919302999999999884e+02
3.800000000000000000e+02,7.925235599999999749e+02
3.810000000000000000e+02,7.931099900000000389e+02
3.820000000000000000e+02,7.936897599999999784e+02
3.830000000000000000e+02,7.942627599999999575e+02
3.840000000000000000e+02,7.948292800000000398e+02
3.850000000000000000e+02,7.953892200000000230e+02
3.860000000000000000e+02,7.959427500000000464e+02
3.870000000000000000e+02,7.964898699999999963e+02
3.880000000000000000e+02,7.970306399999999485e+02
3.890000000000000000e+02,7.975652499999999918e+02
3.900000000000000000e+02,7.980936900000000378e+02
3.910000000000000000e+02,7.986159699999999475e+02
3.920000000000000000e+02,7.991322599999999738e+02
3.930000000000000000e+02,7.996425799999999526e+02
3.940000000000000000e+02,8.001469700000000103e+02
3.950000000000000000e+02,8.006456299999999828e+02
3.960000000000000000e+02,8.011384299999999712e+02
3.970000000000000000e+02,8.016256100000000515e+02
3.980000000000000000e+02,8.021071200000000090e+02
3.990000000000000000e+02,8.025830099999999447e+02
4.000000000000000000e+02,8.030534699999999475e+02
4.010000000000000000e+02,8.035184900000000425e+02
4.020000000000000000e+02,8.039780299999999897e+02
4.030000000000000000e+02,8.044323100000000295e+02
4.040000000000000000e+02,8.048812900000000354e+02
4.050000000000000000e+02,8.053250699999999824e+02
4.060000000000000000e+02,8.057636700000000474e+02
4.070000000000000000e+02,8.061971999999999525e+02
4.080000000000000000e+02,8.066257299999999759e+02
4.090000000000000000e+02,8.070492600000000039e+02
4.100000000000000000e+02,8.074678300000000490e+02
4.110000000000000000e+02,8.078815899999999601e+02
4.120000000000000000e+02,8.082905299999999897e+02
4.130000000000000000e+02,8.086947000000000116e+02
4.140000000000000000e+02,8.090941800000000512e+02
4.150000000000000000e+02,8.094890100000000075e+02
4.160000000000000000e+02,8.098792099999999436e+02
4.170000000000000000e+02,8.102648900000000367e+02
4.180000000000000000e+02,8.106459999999999582e+02
4.190000000000000000e+02,8.110227700000000368e+02
4.200000000000000000e+02,8.113950800000000072e+02
4.210000000000000000e+02,8.117631199999999581e+02
4.220000000000000000e+02,8.121268300000000409e+02
4.230000000000000000e+02,8.124863299999999526e+02
4.240000000000000000e+02,8.128416099999999460e+02
4.250000000000000000e+02,8.131927500000000464e+02
4.260000000000000000e+02,8.135397299999999632e+02
4.270000000000000000e+02,8.138826299999999492e+02
4.280000000000000000e+02,8.142216200000000299e+02
4.290000000000000000e+02,8.145566400000000158e+02
4.300000000000000000e+02,8.148876999999999953e+02
4.310000000000000000e+02,8.152149699999999939e+02
4.320000000000000000e+02,8.155382700000000114e+02
4.330000000000000000e+02,8.158579099999999471e+02
4.340000000000000000e+02,8.161737699999999904e+02
4.350000000000000000e+02,8.164859000000000151e+02
4.360000000000000000e+02,8.167944300000000339e+02
4.370000000000000000e+02,8.170992999999999711e+02
4.380000000000000000e+02,8.174005700000000161e+02
4.390000000000000000e+02,8.176984300000000303e+02
4.400000000000000000e+02,8.179926799999999503e+02
4.410000000000000000e+02,8.182835099999999784e+02
4.420000000000000000e+02,8.185709799999999632e+02
4.430000000000000000e+02,8.188550400000000309e+02
4.440000000000000000e+02,8.191357400000000553e+02
4.450000000000000000e+02,8.194131499999999733e+02
4.460000000000000000e+02,8.196873799999999619e+02
4.470000000000000000e+02,8.199583099999999831e+02
4.480000000000000000e+02,8.202260700000000497e+02
4.490000000000000000e+02,8.204907200000000103e+02
4.500000000000000000e+02,8.207522000000000162e+02
4.510000000000000000e+02,8.210106799999999794e+02
4.520000000000000000e+02,8.212660499999999502e+02
4.530000000000000000e+02,8.215184900000000425e+02
4.540000000000000000e+02,8.217678799999999910e+02
4.550000000000000000e+02,8.220144000000000233e+02
4.560000000000000000e+02,8.222580000000000382e+02
4.570000000000000000e+02,8.224987800000000107e+02
4.580000000000000000e+02,8.227366299999999910e+02
4.590000000000000000e+02,8.229717399999999543e+02
4.600000000000000000e+02,8.232041000000000395e+02
4.610000000000000000e+02,8.234336499999999432e+02
4.620000000000000000e+02,8.236605799999999817e+02
4.630000000000000000e+02,8.238847700000000032e+02
4.640000000000000000e+02,8.241063799999999446e+02
4.650000000000000000e+02,8.243253799999999956e+02
4.660000000000000000e+02,8.245417499999999791e+02
4.670000000000000000e+02,8.247555499999999711e+02
4.680000000000000000e+02,8.249668599999999969e+02
4.690000000000000000e+02,8.251757199999999557e+02
4.700000000000000000e+02,8.253820799999999736e+02
4.710000000000000000e+02,8.255860000000000127e+02
4.720000000000000000e+02,8.257874799999999595e+02
4.730000000000000000e+02,8.259866299999999910e+02
4.740000000000000000e+02,8.261834099999999808e+02
4.750000000000000000e+02,8.263779299999999921e+02
4.760000000000000000e+02,8.265700699999999870e+02
4.770000000000000000e+02,8.267600099999999657e+02
4.780000000000000000e+02,8.269476300000000037e+02
4.790000000000000000e+02,8.271330600000000004e+02
4.800000000000000000e+02,8.273163500000000568e+02
4.810000000000000000e+02,8.274974399999999832e+02
4.820000000000000000e+02,8.276763899999999694e+02
4.830000000000000000e+02,8.278532099999999900e+02
4.840000000000000000e+02,8.280279500000000326e+02
4.850000000000000000e+02,8.282005599999999959e+02
4.860000000000000000e+02,8.283712199999999939e+02
4.870000000000000000e+02,8.285398599999999760e+02
4.880000000000000000e+02,8.287064800000000560e+02
4.890000000000000000e+02,8.288710899999999810e+02
4.900000000000000000e+02,8.290338100000000168e+02
4.910000000000000000e+02,8.291945799999999736e+02
4.920000000000000000e+02,8.293534499999999525e+02
4.930000000000000000e+02,8.295104400000000169e+02
4.940000000000000000e+02,8.296655899999999519e+02
4.950000000000000000e+02,8.298189099999999598e+02
4.960000000000000000e+02,8.299704000000000406e+02
4.970000000000000000e+02,8.301200599999999667e+02
4.980000000000000000e+02,8.302680100000000039e+02
4.990000000000000000e+02,8.304141200000000254e+02
5.000000000000000000e+02,8.305585899999999810e+02
5.010000000000000000e+02,8.307012899999999718e+02
5.020000000000000000e+02,8.308423500000000104e+02
5.030000000000000000e+02,8.309816899999999578e+02
5.040000000000000000e+02,8.311193799999999783e+02
5.050000000000000000e+02,8.312554900000000089e+02
5.060000000000000000e+02,8.313899499999999989e+02
5.070000000000000000e+02,8.315228299999999990e+02
5.080000000000000000e+02,8.316541099999999460e+02
5.090000000000000000e+02,8.317838100000000168e+02
5.100000000000000000e+02,8.319120500000000220e+02
5.110000000000000000e+02,8.320386999999999489e+02
5.120000000000000000e+02,8.321638799999999492e+02
5.130000000000000000e+02,8.322875999999999976e+02
5.140000000000000000e+02,8.324097900000000436e+02
5.150000000000000000e+02,8.325305799999999863e+02
5.160000000000000000e+02,8.326499000000000024e+02
5.170000000000000000e+02,8.327678200000000288e+02
5.180000000000000000e+02,8.328843399999999519e+02
5.190000000000000000e+02,8.329995099999999866e+02
5.200000000000000000e+02,8.331132800000000316e+02
5.210000000000000000e+02,8.332257100000000491e+02
5.220000000000000000e+02,8.333367899999999509e+02
5.230000000000000000e+02,8.334465300000000525e+02
5.240000000000000000e+02,8.335549899999999752e+02
5.250000000000000000e+02,8.336621699999999464e+02
5.260000000000000000e+02,8.337680699999999661e+02
5.270000000000000000e+02,8.338727400000000216e+02
5.280000000000000000e+02,8.339761399999999867e+02
5.290000000000000000e+02,8.340783099999999877e+02
5.300000000000000000e+02,8.341792599999999993e+02
5.310000000000000000e+02,8.342790499999999838e+02
5.320000000000000000e+02,8.343776199999999790e+02
5.330000000000000000e+02,8.344749799999999595e+02
5.340000000000000000e+02,8.345712300000000141e+02
5.350000000000000000e+02,8.346663200000000415e+02
5.360000000000000000e+02,8.347603100000000040e+02
5.370000000000000000e+02,8.348531500000000278e+02
5.380000000000000000e+02,8.349449499999999489e+02
5.390000000000000000e+02,8.350355799999999817e+02
5.400000000000000000e+02,8.351251800000000003e+02
5.410000000000000000e+02,8.352136799999999539e+02
5.420000000000000000e+02,8.353011500000000069e+02
5.430000000000000000e+02,8.353875699999999824e+02
5.440000000000000000e+02,8.354729599999999436e+02
5.450000000000000000e+02,8.355573100000000295e+02
5.460000000000000000e+02,8.356406899999999496e+02
5.470000000000000000e+02,8.357230799999999817e+02
5.480000000000000000e+02,8.358044999999999618e+02
5.490000000000000000e+02,8.358849500000000035e+02
5.500000000000000000e+02,8.359644200000000183e+02
5.510000000000000000e+02,8.360429100000000062e+02
5.520000000000000000e+02,8.361204800000000432e+02
5.530000000000000000e+02,8.361971999999999525e+02
5.540000000000000000e+02,8.362729500000000371e+02
5.550000000000000000e+02,8.363477799999999434e+02
5.560000000000000000e+02,8.364217499999999745e+02
5.570000000000000000e+02,8.364948699999999917e+02
5.580000000000000000e+02,8.365670800000000327e+02
5.590000000000000000e+02,8.366384299999999712e+02
5.600000000000000000e+02,8.367089200000000346e+02
5.610000000000000000e+02,8.367786300000000210e+02
5.620000000000000000e+02,8.368474700000000439e+02
5.630000000000000000e+02,8.369154700000000275e+02
5.640000000000000000e+02,8.369826699999999846e+02
5.650000000000000000e+02,8.370490700000000288e+02
5.660000000000000000e+02,8.371146899999999960e+02
5.670000000000000000e+02,8.371794999999999618e+02
5.680000000000000000e+02,8.372435900000000402e+02
5.690000000000000000e+02,8.373068799999999783e+02
5.700000000000000000e+02,8.373694500000000289e+02
5.710000000000000000e+02,8.374312099999999646e+02
5.720000000000000000e+02,8.374923099999999749e+02
5.730000000000000000e+02,8.375526099999999587e+02
5.740000000000000000e+02,8.376122400000000425e+02
5.750000000000000000e+02,8.376711400000000367e+02
5.760000000000000000e+02,8.377293700000000172e+02
5.770000000000000000e+02,8.377868700000000217e+02
5.780000000000000000e+02,8.378436900000000378e+02
5.790000000000000000e+02,8.378998400000000402e+02
5.800000000000000000e+02,8.379553200000000288e+02
5.810000000000000000e+02,8.380101300000000037e+02
5.820000000000000000e+02,8.380642699999999650e+02
5.830000000000000000e+02,8.381177999999999884e+02
5.840000000000000000e+02,8.381707199999999602e+02
5.850000000000000000e+02,8.382229599999999436e+02
5.860000000000000000e+02,8.382745999999999640e+02
5.870000000000000000e+02,8.383255599999999959e+02
5.880000000000000000e+02,8.383759800000000268e+02
5.890000000000000000e+02,8.384257800000000316e+02
5.900000000000000000e+02,8.384749799999999595e+02
5.910000000000000000e+02,8.385236200000000508e+02
5.920000000000000000e+02,8.385716599999999517e+02
5.930000000000000000e+02,8.386191400000000158e+02
5.940000000000000000e+02,8.386660200000000032e+02
5.950000000000000000e+02,8.387123400000000402e+02
5.960000000000000000e+02,8.387581800000000385e+02
5.970000000000000000e+02,8.388034099999999853e+02
5.980000000000000000e+02,8.388480799999999817e+02
5.990000000000000000e+02,8.388922700000000532e+02