# Time [s], Temperature [C]
1.000000000000000000e+00,2.499996900000000011e+01
2.000000000000000000e+00,3.381065399999999954e+01
3.000000000000000000e+00,3.867392000000000252e+01
4.000000000000000000e+00,4.265082600000000213e+01
5.000000000000000000e+00,4.596282999999999674e+01
6.000000000000000000e+00,4.887664399999999887e+01
7.000000000000000000e+00,5.148843800000000215e+01
8.000000000000000000e+00,5.387290200000000340e+01
9.000000000000000000e+00,5.607420700000000124e+01
1.000000000000000000e+01,5.812549599999999828e+01
1.100000000000000000e+01,6.005041500000000099e+01
1.200000000000000000e+01,6.186753800000000325e+01
1.300000000000000000e+01,6.359066399999999675e+01
1.400000000000000000e+01,6.523169699999999693e+01
1.500000000000000000e+01,6.679948400000000674e+01
1.600000000000000000e+01,6.830166599999999733e+01
1.700000000000000000e+01,6.974471300000000440e+01
1.800000000000000000e+01,7.113438399999999717e+01
1.900000000000000000e+01,7.247462500000000318e+01
2.000000000000000000e+01,7.377030899999999747e+01
2.100000000000000000e+01,7.502403999999999940e+01
2.200000000000000000e+01,7.623961599999999805e+01
2.300000000000000000e+01,7.741964699999999766e+01
2.400000000000000000e+01,7.856626099999999724e+01
2.500000000000000000e+01,7.968166399999999783e+01
2.600000000000000000e+01,8.076816599999999369e+01
2.700000000000000000e+01,8.182711000000000467e+01
2.800000000000000000e+01,8.286003900000000044e+01
2.900000000000000000e+01,8.386860699999999724e+01
3.000000000000000000e+01,8.485429399999999589e+01
3.100000000000000000e+01,8.581765699999999697e+01
3.200000000000000000e+01,8.676062799999999697e+01
3.300000000000000000e+01,8.768349499999999352e+01
3.400000000000000000e+01,8.858739500000000078e+01
3.500000000000000000e+01,8.947367900000000418e+01
3.600000000000000000e+01,9.034242199999999912e+01
3.700000000000000000e+01,9.119478599999999346e+01
3.800000000000000000e+01,9.203137999999999863e+01
3.900000000000000000e+01,9.285295899999999847e+01
4.000000000000000000e+01,9.365999600000000669e+01
4.100000000000000000e+01,9.445320900000000108e+01
4.200000000000000000e+01,9.523293300000000272e+01
4.300000000000000000e+01,9.599973300000000620e+01
4.400000000000000000e+01,9.675421099999999797e+01
4.500000000000000000e+01,9.749665799999999649e+01
4.600000000000000000e+01,9.822768399999999644e+01
4.700000000000000000e+01,9.894747200000000475e+01
4.800000000000000000e+01,9.965644799999999748e+01
4.900000000000000000e+01,1.003550000000000040e+02
5.000000000000000000e+01,1.010436299999999932e+02
5.100000000000000000e+01,1.017229099999999988e+02
5.200000000000000000e+01,1.023924899999999951e+02
5.300000000000000000e+01,1.030529999999999973e+02
5.400000000000000000e+01,1.037047799999999995e+02
5.500000000000000000e+01,1.043481100000000055e+02
5.600000000000000000e+01,1.049831499999999949e+02
5.700000000000000000e+01,1.056101900000000029e+02
5.800000000000000000e+01,1.062295299999999969e+02
5.900000000000000000e+01,1.068414700000000011e+02
6.000000000000000000e+01,1.074459800000000058e+02
6.100000000000000000e+01,1.080433000000000021e+02
6.200000000000000000e+01,1.086341199999999958e+02
6.300000000000000000e+01,1.092179299999999955e+02
6.400000000000000000e+01,1.097953799999999944e+02
6.500000000000000000e+01,1.103667800000000057e+02
6.600000000000000000e+01,1.109319299999999942e+02
6.700000000000000000e+01,1.114911100000000062e+02
6.800000000000000000e+01,1.120445799999999963e+02
6.900000000000000000e+01,1.125923899999999946e+02
7.000000000000000000e+01,1.131346999999999952e+02
7.100000000000000000e+01,1.136717900000000014e+02
7.200000000000000000e+01,1.142038000000000011e+02
7.300000000000000000e+01,1.147306700000000035e+02
7.400000000000000000e+01,1.152527599999999950e+02
7.500000000000000000e+01,1.157701500000000010e+02
7.600000000000000000e+01,1.162827999999999946e+02
7.700000000000000000e+01,1.167910200000000032e+02
7.800000000000000000e+01,1.172948899999999952e+02
7.900000000000000000e+01,1.177945100000000025e+02
8.000000000000000000e+01,1.182897700000000043e+02
8.100000000000000000e+01,1.187811999999999983e+02
8.200000000000000000e+01,1.192686499999999938e+02
8.300000000000000000e+01,1.197522299999999973e+02
8.400000000000000000e+01,1.202319600000000008e+02
8.500000000000000000e+01,1.207081799999999987e+02
8.600000000000000000e+01,1.211809499999999957e+02
8.700000000000000000e+01,1.216500900000000058e+02
8.800000000000000000e+01,1.221158999999999963e+02
8.900000000000000000e+01,1.225783200000000051e+02
9.000000000000000000e+01,1.230376899999999978e+02
9.100000000000000000e+01,1.234939300000000060e+02
9.200000000000000000e+01,1.239469100000000026e+02
9.300000000000000000e+01,1.243969600000000071e+02
9.400000000000000000e+01,1.248441499999999991e+02
9.500000000000000000e+01,1.252886100000000056e+02
9.600000000000000000e+01,1.257301099999999963e+02
9.700000000000000000e+01,1.261689599999999984e+02
9.800000000000000000e+01,1.266051700000000011e+02
9.900000000000000000e+01,1.270386199999999945e+02
1.000000000000000000e+02,1.274696600000000046e+02
1.010000000000000000e+02,1.278983199999999982e+02
1.020000000000000000e+02,1.283245100000000036e+02
1.030000000000000000e+02,1.287483100000000036e+02
1.040000000000000000e+02,1.291698199999999872e+02
1.050000000000000000e+02,1.295889999999999986e+02
1.060000000000000000e+02,1.300060000000000002e+02
1.070000000000000000e+02,1.304208700000000078e+02
1.080000000000000000e+02,1.308332499999999925e+02
1.090000000000000000e+02,1.312437999999999931e+02
1.100000000000000000e+02,1.316524000000000001e+02
1.110000000000000000e+02,1.320589899999999943e+02
1.120000000000000000e+02,1.324636199999999917e+02
1.130000000000000000e+02,1.328663599999999860e+02
1.140000000000000000e+02,1.332671499999999867e+02
1.150000000000000000e+02,1.336661200000000065e+02
1.160000000000000000e+02,1.340633500000000140e+02
1.170000000000000000e+02,1.344587899999999934e+02
1.180000000000000000e+02,1.348524500000000046e+02
1.190000000000000000e+02,1.352444600000000037e+02
1.200000000000000000e+02,1.356347800000000063e+02
1.210000000000000000e+02,1.360234700000000032e+02
1.220000000000000000e+02,1.364105700000000070e+02
1.230000000000000000e+02,1.367960699999999861e+02
1.240000000000000000e+02,1.371799900000000036e+02
1.250000000000000000e+02,1.375624699999999905e+02
1.260000000000000000e+02,1.379434100000000001e+02
1.270000000000000000e+02,1.383228599999999915e+02
1.280000000000000000e+02,1.387010500000000093e+02
1.290000000000000000e+02,1.390776400000000024e+02
1.300000000000000000e+02,1.394528400000000090e+02
1.310000000000000000e+02,1.398267199999999946e+02
1.320000000000000000e+02,1.401991899999999873e+02
1.330000000000000000e+02,1.405703300000000127e+02
1.340000000000000000e+02,1.409402000000000044e+02
1.350000000000000000e+02,1.413087500000000034e+02
1.360000000000000000e+02,1.416759800000000098e+02
1.370000000000000000e+02,1.420419799999999952e+02
1.380000000000000000e+02,1.424066899999999976e+02
1.390000000000000000e+02,1.427701900000000137e+02
1.400000000000000000e+02,1.431325500000000090e+02
1.410000000000000000e+02,1.434936999999999898e+02
1.420000000000000000e+02,1.438536699999999939e+02
1.430000000000000000e+02,1.442126800000000060e+02
1.440000000000000000e+02,1.445703699999999969e+02
1.450000000000000000e+02,1.449271400000000085e+02
1.460000000000000000e+02,1.452827299999999866e+02
1.470000000000000000e+02,1.456371800000000007e+02
1.480000000000000000e+02,1.459905100000000004e+02
1.490000000000000000e+02,1.463428299999999922e+02
1.500000000000000000e+02,1.466940800000000138e+02
1.510000000000000000e+02,1.470442999999999927e+02
1.520000000000000000e+02,1.473936600000000112e+02
1.530000000000000000e+02,1.477418199999999899e+02
1.540000000000000000e+02,1.480889899999999955e+02
1.550000000000000000e+02,1.484352299999999900e+02
1.560000000000000000e+02,1.487804299999999955e+02
1.570000000000000000e+02,1.491248199999999997e+02
1.580000000000000000e+02,1.494682300000000055e+02
1.590000000000000000e+02,1.498106500000000096e+02
1.600000000000000000e+02,1.501521899999999903e+02
1.610000000000000000e+02,1.504927099999999882e+02
1.620000000000000000e+02,1.508322599999999909e+02
1.630000000000000000e+02,1.511708800000000110e+02
1.640000000000000000e+02,1.515086499999999887e+02
1.650000000000000000e+02,1.518454700000000059e+02
1.660000000000000000e+02,1.521815599999999904e+02
1.670000000000000000e+02,1.525168299999999988e+02
1.680000000000000000e+02,1.528510300000000086e+02
1.690000000000000000e+02,1.531843700000000013e+02
1.700000000000000000e+02,1.535169699999999864e+02
1.710000000000000000e+02,1.538487100000000112e+02
1.720000000000000000e+02,1.541795799999999872e+02
1.730000000000000000e+02,1.545097800000000063e+02
1.740000000000000000e+02,1.548391100000000051e+02
1.750000000000000000e+02,1.551675099999999929e+02
1.760000000000000000e+02,1.554951199999999858e+02
1.770000000000000000e+02,1.558218500000000120e+02
1.780000000000000000e+02,1.561477500000000020e+02
1.790000000000000000e+02,1.564730500000000006e+02
1.800000000000000000e+02,1.567974199999999882e+02
1.810000000000000000e+02,1.571211399999999969e+02
1.820000000000000000e+02,1.574439800000000105e+02
1.830000000000000000e+02,1.577660099999999943e+02
1.840000000000000000e+02,1.580872300000000052e+02
1.850000000000000000e+02,1.584078700000000026e+02
1.860000000000000000e+02,1.587275500000000079e+02
1.870000000000000000e+02,1.590467099999999903e+02
1.880000000000000000e+02,1.593650700000000029e+02
1.890000000000000000e+02,1.596825900000000047e+02
1.900000000000000000e+02,1.599994499999999960e+02
1.910000000000000000e+02,1.603154600000000016e+02
1.920000000000000000e+02,1.606307500000000061e+02
1.930000000000000000e+02,1.609454299999999876e+02
1.940000000000000000e+02,1.612593799999999931e+02
1.950000000000000000e+02,1.615726600000000133e+02
1.960000000000000000e+02,1.618850300000000004e+02
1.970000000000000000e+02,1.621967300000000023e+02
1.980000000000000000e+02,1.625076599999999871e+02
1.990000000000000000e+02,1.628181299999999965e+02
2.000000000000000000e+02,1.631277300000000139e+02
2.010000000000000000e+02,1.634366499999999860e+02
2.020000000000000000e+02,1.637448400000000106e+02
2.030000000000000000e+02,1.640523499999999899e+02
2.040000000000000000e+02,1.643593799999999874e+02
2.050000000000000000e+02,1.646654499999999928e+02
2.060000000000000000e+02,1.649708899999999971e+02
2.070000000000000000e+02,1.652756200000000035e+02
2.080000000000000000e+02,1.655797900000000027e+02
2.090000000000000000e+02,1.658833300000000008e+02
2.100000000000000000e+02,1.661861000000000104e+02
2.110000000000000000e+02,1.664881100000000060e+02
2.120000000000000000e+02,1.667895200000000102e+02
2.130000000000000000e+02,1.670903299999999945e+02
2.140000000000000000e+02,1.673904699999999934e+02
2.150000000000000000e+02,1.676899400000000071e+02
2.160000000000000000e+02,1.679886799999999880e+02
2.170000000000000000e+02,1.682868300000000090e+02
2.180000000000000000e+02,1.685842900000000100e+02
2.190000000000000000e+02,1.688812299999999880e+02
2.200000000000000000e+02,1.691773499999999899e+02
2.210000000000000000e+02,1.694729600000000005e+02
2.220000000000000000e+02,1.697677600000000098e+02
2.230000000000000000e+02,1.700620999999999867e+02
2.240000000000000000e+02,1.703557700000000068e+02
2.250000000000000000e+02,1.706487999999999943e+02
2.260000000000000000e+02,1.709410399999999868e+02
2.270000000000000000e+02,1.712328300000000070e+02
2.280000000000000000e+02,1.715239100000000008e+02
2.290000000000000000e+02,1.718144100000000094e+02
2.300000000000000000e+02,1.721041600000000074e+02
2.310000000000000000e+02,1.723932599999999979e+02
2.320000000000000000e+02,1.726819800000000100e+02
2.330000000000000000e+02,1.729699200000000019e+02
2.340000000000000000e+02,1.732572499999999991e+02
2.350000000000000000e+02,1.735438699999999983e+02
2.360000000000000000e+02,1.738301400000000001e+02
2.370000000000000000e+02,1.741155699999999911e+02
2.380000000000000000e+02,1.744004099999999937e+02
2.390000000000000000e+02,1.746847199999999987e+02
2.400000000000000000e+02,1.749684000000000026e+02
2.410000000000000000e+02,1.752513600000000054e+02
2.420000000000000000e+02,1.755337499999999977e+02
2.430000000000000000e+02,1.758156299999999987e+02
2.440000000000000000e+02,1.760968599999999924e+02
2.450000000000000000e+02,1.763774699999999882e+02
2.460000000000000000e+02,1.766575200000000052e+02
2.470000000000000000e+02,1.769369800000000055e+02
2.480000000000000000e+02,1.772158200000000079e+02
2.490000000000000000e+02,1.774939899999999966e+02
2.500000000000000000e+02,1.777716200000000129e+02
2.510000000000000000e+02,1.780487400000000093e+02
2.520000000000000000e+02,1.783251300000000015e+02
2.530000000000000000e+02,1.786009799999999927e+02
2.540000000000000000e+02,1.788762099999999862e+02
2.550000000000000000e+02,1.791509399999999914e+02
2.560000000000000000e+02,1.794250499999999988e+02
2.570000000000000000e+02,1.796984699999999862e+02
2.580000000000000000e+02,1.799714700000000107e+02
2.590000000000000000e+02,1.802437600000000089e+02
2.600000000000000000e+02,1.805155599999999936e+02
2.610000000000000000e+02,1.807866199999999992e+02
2.620000000000000000e+02,1.810572500000000105e+02
2.630000000000000000e+02,1.813273800000000051e+02
2.640000000000000000e+02,1.815966899999999953e+02
2.650000000000000000e+02,1.818655899999999974e+02
2.660000000000000000e+02,1.821339600000000019e+02
2.670000000000000000e+02,1.824016100000000051e+02
2.680000000000000000e+02,1.826686599999999885e+02
2.690000000000000000e+02,1.829353600000000029e+02
2.700000000000000000e+02,1.832013100000000065e+02
2.710000000000000000e+02,1.834666699999999935e+02
2.720000000000000000e+02,1.837316700000000083e+02
2.730000000000000000e+02,1.839959100000000092e+02
2.740000000000000000e+02,1.842595799999999997e+02
2.750000000000000000e+02,1.845229300000000023e+02
2.760000000000000000e+02,1.847854299999999910e+02
2.770000000000000000e+02,1.850474100000000135e+02
2.780000000000000000e+02,1.853091000000000008e+02
2.790000000000000000e+02,1.855699500000000057e+02
2.800000000000000000e+02,1.858302500000000066e+02
2.810000000000000000e+02,1.860901200000000131e+02
2.820000000000000000e+02,1.863493799999999965e+02
2.830000000000000000e+02,1.866080000000000041e+02
2.840000000000000000e+02,1.868661999999999921e+02
2.850000000000000000e+02,1.871238400000000013e+02
2.860000000000000000e+02,1.873808099999999968e+02
2.870000000000000000e+02,1.876373399999999947e+02
2.880000000000000000e+02,1.878933100000000138e+02
2.890000000000000000e+02,1.881486400000000003e+02
2.900000000000000000e+02,1.884035599999999988e+02
2.910000000000000000e+02,1.886578800000000058e+02
2.920000000000000000e+02,1.889116500000000087e+02
2.930000000000000000e+02,1.891647800000000075e+02
2.940000000000000000e+02,1.894175099999999929e+02
2.950000000000000000e+02,1.896696799999999996e+02
2.960000000000000000e+02,1.899211899999999957e+02
2.970000000000000000e+02,1.901723000000000070e+02
2.980000000000000000e+02,1.904228500000000111e+02
2.990000000000000000e+02,1.906727300000000014e+02
3.000000000000000000e+02,1.909222300000000132e+02
3.010000000000000000e+02,1.911711699999999894e+02
3.020000000000000000e+02,1.914194500000000119e+02
3.030000000000000000e+02,1.916674199999999928e+02
3.040000000000000000e+02,1.919146399999999915e+02
3.050000000000000000e+02,1.921614800000000116e+02
3.060000000000000000e+02,1.924077800000000025e+02
3.070000000000000000e+02,1.926534000000000049e+02
3.080000000000000000e+02,1.928986400000000003e+02
3.090000000000000000e+02,1.931433299999999917e+02
3.100000000000000000e+02,1.933873600000000010e+02
3.110000000000000000e+02,1.936311000000000035e+02
3.120000000000000000e+02,1.938741100000000017e+02
3.130000000000000000e+02,1.941166100000000085e+02
3.140000000000000000e+02,1.943587599999999895e+02
3.150000000000000000e+02,1.946002000000000010e+02
3.160000000000000000e+02,1.948412199999999928e+02
3.170000000000000000e+02,1.950817000000000121e+02
3.180000000000000000e+02,1.953216099999999926e+02
3.190000000000000000e+02,1.955611700000000042e+02
3.200000000000000000e+02,1.958000499999999988e+02
3.210000000000000000e+02,1.960384699999999896e+02
3.220000000000000000e+02,1.962763699999999858e+02
3.230000000000000000e+02,1.965137300000000096e+02
3.240000000000000000e+02,1.967506099999999947e+02
3.250000000000000000e+02,1.969869700000000137e+02
3.260000000000000000e+02,1.972228499999999940e+02
3.270000000000000000e+02,1.974582100000000082e+02
3.280000000000000000e+02,1.976929800000000057e+02
3.290000000000000000e+02,1.979273200000000088e+02
3.300000000000000000e+02,1.981611499999999921e+02
3.310000000000000000e+02,1.983944999999999936e+02
3.320000000000000000e+02,1.986272400000000005e+02
3.330000000000000000e+02,1.988595899999999972e+02
3.340000000000000000e+02,1.990913799999999867e+02
3.350000000000000000e+02,1.993227500000000134e+02
3.360000000000000000e+02,1.995535900000000140e+02
3.370000000000000000e+02,1.997837499999999977e+02
3.380000000000000000e+02,2.000136400000000094e+02
3.390000000000000000e+02,2.002429700000000139e+02
3.400000000000000000e+02,2.004717899999999986e+02
3.410000000000000000e+02,2.007001799999999889e+02
3.420000000000000000e+02,2.009278700000000129e+02
3.430000000000000000e+02,2.011552900000000079e+02
3.440000000000000000e+02,2.013820800000000020e+02
3.450000000000000000e+02,2.016084299999999985e+02
3.460000000000000000e+02,2.018342900000000100e+02
3.470000000000000000e+02,2.020595700000000079e+02
3.480000000000000000e+02,2.022845499999999959e+02
3.490000000000000000e+02,2.025088299999999890e+02
3.500000000000000000e+02,2.027328599999999881e+02
3.510000000000000000e+02,2.029562099999999987e+02
3.520000000000000000e+02,2.031791699999999992e+02
3.530000000000000000e+02,2.034016599999999926e+02
3.540000000000000000e+02,2.036235200000000134e+02
3.550000000000000000e+02,2.038450899999999990e+02
3.560000000000000000e+02,2.040660399999999868e+02
3.570000000000000000e+02,2.042866799999999898e+02
3.580000000000000000e+02,2.045065899999999885e+02
3.590000000000000000e+02,2.047261799999999994e+02
3.600000000000000000e+02,2.049452499999999873e+02
3.610000000000000000e+02,2.051638000000000090e+02
3.620000000000000000e+02,2.053820599999999956e+02
3.630000000000000000e+02,2.055996100000000126e+02
3.640000000000000000e+02,2.058168599999999913e+02
3.650000000000000000e+02,2.060335399999999879e+02
3.660000000000000000e+02,2.062497700000000123e+02
3.670000000000000000e+02,2.064655300000000011e+02
3.680000000000000000e+02,2.066808800000000019e+02
3.690000000000000000e+02,2.068957100000000082e+02
3.700000000000000000e+02,2.071100500000000011e+02
3.710000000000000000e+02,2.073239599999999996e+02
3.720000000000000000e+02,2.075373400000000004e+02
3.730000000000000000e+02,2.077502599999999973e+02
3.740000000000000000e+02,2.079627800000000093e+02
3.750000000000000000e+02,2.081747900000000016e+02
3.760000000000000000e+02,2.083863200000000120e+02
3.770000000000000000e+02,2.085974600000000123e+02
3.780000000000000000e+02,2.088080899999999929e+02
3.790000000000000000e+02,2.090182599999999979e+02
3.800000000000000000e+02,2.092280299999999897e+02
3.810000000000000000e+02,2.094372999999999934e+02
3.820000000000000000e+02,2.096460399999999993e+02
3.830000000000000000e+02,2.098544500000000141e+02
3.840000000000000000e+02,2.100622099999999932e+02
3.850000000000000000e+02,2.102697300000000098e+02
3.860000000000000000e+02,2.104766400000000033e+02
3.870000000000000000e+02,2.106831799999999930e+02
3.880000000000000000e+02,2.108892500000000041e+02
3.890000000000000000e+02,2.110948600000000113e+02
3.900000000000000000e+02,2.113000299999999925e+02
3.910000000000000000e+02,2.115047099999999887e+02
3.920000000000000000e+02,2.117090300000000127e+02
3.930000000000000000e+02,2.119128100000000074e+02
3.940000000000000000e+02,2.121161700000000110e+02
3.950000000000000000e+02,2.123190199999999948e+02
3.960000000000000000e+02,2.125215599999999938e+02
3.970000000000000000e+02,2.127234799999999950e+02
3.980000000000000000e+02,2.129251600000000053e+02
3.990000000000000000e+02,2.131261700000000019e+02
4.000000000000000000e+02,2.133269300000000044e+02
4.010000000000000000e+02,2.135270999999999901e+02
4.020000000000000000e+02,2.137269900000000007e+02
4.030000000000000000e+02,2.139262200000000007e+02
4.040000000000000000e+02,2.141252599999999973e+02
4.050000000000000000e+02,2.143236400000000117e+02
4.060000000000000000e+02,2.145217600000000004e+02
4.070000000000000000e+02,2.147192699999999945e+02
4.080000000000000000e+02,2.149164900000000102e+02
4.090000000000000000e+02,2.151130699999999933e+02
4.100000000000000000e+02,2.153094499999999982e+02
4.110000000000000000e+02,2.155051899999999989e+02
4.120000000000000000e+02,2.157006700000000023e+02
4.130000000000000000e+02,2.158955799999999954e+02
4.140000000000000000e+02,2.160901900000000069e+02
4.150000000000000000e+02,2.162841899999999953e+02
4.160000000000000000e+02,2.164779699999999991e+02
4.170000000000000000e+02,2.166710999999999956e+02
4.180000000000000000e+02,2.168639699999999948e+02
4.190000000000000000e+02,2.170562700000000120e+02
4.200000000000000000e+02,2.172482899999999972e+02
4.210000000000000000e+02,2.174396800000000098e+02
4.220000000000000000e+02,2.176308600000000126e+02
4.230000000000000000e+02,2.178214099999999860e+02
4.240000000000000000e+02,2.180116899999999873e+02
4.250000000000000000e+02,2.182014299999999878e+02
4.260000000000000000e+02,2.183908500000000004e+02
4.270000000000000000e+02,2.185797100000000057e+02
4.280000000000000000e+02,2.187682299999999884e+02
4.290000000000000000e+02,2.189562999999999988e+02
4.300000000000000000e+02,2.191439200000000085e+02
4.310000000000000000e+02,2.193311899999999923e+02
4.320000000000000000e+02,2.195179599999999880e+02
4.330000000000000000e+02,2.197043299999999988e+02
4.340000000000000000e+02,2.198902999999999963e+02
4.350000000000000000e+02,2.200758500000000026e+02
4.360000000000000000e+02,2.202609300000000019e+02
4.370000000000000000e+02,2.204456500000000005e+02
4.380000000000000000e+02,2.206298999999999921e+02
4.390000000000000000e+02,2.208137199999999893e+02
4.400000000000000000e+02,2.209971600000000080e+02
4.410000000000000000e+02,2.211801800000000071e+02
4.420000000000000000e+02,2.213627299999999991e+02
4.430000000000000000e+02,2.215449500000000000e+02
4.440000000000000000e+02,2.217267300000000034e+02
4.450000000000000000e+02,2.219079700000000059e+02
4.460000000000000000e+02,2.220889899999999955e+02
4.470000000000000000e+02,2.222693899999999871e+02
4.480000000000000000e+02,2.224495400000000132e+02
4.490000000000000000e+02,2.226291400000000067e+02
4.500000000000000000e+02,2.228084699999999998e+02
4.510000000000000000e+02,2.229872900000000016e+02
4.520000000000000000e+02,2.231657600000000059e+02
4.530000000000000000e+02,2.233437500000000000e+02
4.540000000000000000e+02,2.235213300000000061e+02
4.550000000000000000e+02,2.236985799999999927e+02
4.560000000000000000e+02,2.238752599999999973e+02
4.570000000000000000e+02,2.240516800000000046e+02
4.580000000000000000e+02,2.242275999999999954e+02
4.590000000000000000e+02,2.244032300000000077e+02
4.600000000000000000e+02,2.245782600000000002e+02
4.610000000000000000e+02,2.247530999999999892e+02
4.620000000000000000e+02,2.249273200000000088e+02
4.630000000000000000e+02,2.251012900000000059e+02
4.640000000000000000e+02,2.252748699999999928e+02
4.650000000000000000e+02,2.254478799999999978e+02
4.660000000000000000e+02,2.256206200000000024e+02
4.670000000000000000e+02,2.257928300000000092e+02
4.680000000000000000e+02,2.259647799999999904e+02
4.690000000000000000e+02,2.261361400000000117e+02
4.700000000000000000e+02,2.263072999999999979e+02
4.710000000000000000e+02,2.264779100000000085e+02
4.720000000000000000e+02,2.266481300000000090e+02
4.730000000000000000e+02,2.268180199999999900e+02
4.740000000000000000e+02,2.269874399999999923e+02
4.750000000000000000e+02,2.271565999999999974e+02
4.760000000000000000e+02,2.273251999999999953e+02
4.770000000000000000e+02,2.274935199999999895e+02
4.780000000000000000e+02,2.276613000000000113e+02
4.790000000000000000e+02,2.278287500000000136e+02
4.800000000000000000e+02,2.279957899999999995e+02
4.810000000000000000e+02,2.281623800000000131e+02
4.820000000000000000e+02,2.283287400000000105e+02
4.830000000000000000e+02,2.284944900000000132e+02
4.840000000000000000e+02,2.286599899999999934e+02
4.850000000000000000e+02,2.288250099999999918e+02
4.860000000000000000e+02,2.289896400000000085e+02
4.870000000000000000e+02,2.291538700000000119e+02
4.880000000000000000e+02,2.293177499999999895e+02
4.890000000000000000e+02,2.294812200000000075e+02
4.900000000000000000e+02,2.296442900000000122e+02
4.910000000000000000e+02,2.298069900000000132e+02
4.920000000000000000e+02,2.299692799999999977e+02
4.930000000000000000e+02,2.301311300000000131e+02
4.940000000000000000e+02,2.302926600000000121e+02
4.950000000000000000e+02,2.304537699999999916e+02
4.960000000000000000e+02,2.306144600000000082e+02
4.970000000000000000e+02,2.307748300000000086e+02
4.980000000000000000e+02,2.309347199999999987e+02
4.990000000000000000e+02,2.310942499999999882e+02
5.000000000000000000e+02,2.312533999999999992e+02
5.010000000000000000e+02,2.314121700000000033e+02
5.020000000000000000e+02,2.315705399999999941e+02
5.030000000000000000e+02,2.317285500000000127e+02
5.040000000000000000e+02,2.318861699999999928e+02
5.050000000000000000e+02,2.320433500000000038e+02
5.060000000000000000e+02,2.322002300000000048e+02
5.070000000000000000e+02,2.323566700000000083e+02
5.080000000000000000e+02,2.325127099999999984e+02
5.090000000000000000e+02,2.326684099999999944e+02
5.100000000000000000e+02,2.328237200000000087e+02
5.110000000000000000e+02,2.329785300000000063e+02
5.120000000000000000e+02,2.331331500000000005e+02
5.130000000000000000e+02,2.332872800000000097e+02
5.140000000000000000e+02,2.334410200000000088e+02
5.150000000000000000e+02,2.335944700000000012e+02
5.160000000000000000e+02,2.337473799999999926e+02
5.170000000000000000e+02,2.339000399999999900e+02
5.180000000000000000e+02,2.340522300000000087e+02
5.190000000000000000e+02,2.342041499999999985e+02
5.200000000000000000e+02,2.343556499999999971e+02
5.210000000000000000e+02,2.345067099999999982e+02
5.220000000000000000e+02,2.346574999999999989e+02
5.230000000000000000e+02,2.348078899999999862e+02
5.240000000000000000e+02,2.349578199999999981e+02
5.250000000000000000e+02,2.351074999999999875e+02
5.260000000000000000e+02,2.352566199999999981e+02
5.270000000000000000e+02,2.354055600000000084e+02
5.280000000000000000e+02,2.355540599999999927e+02
5.290000000000000000e+02,2.357020699999999920e+02
5.300000000000000000e+02,2.358499300000000005e+02
5.310000000000000000e+02,2.359972099999999955e+02
5.320000000000000000e+02,2.361442600000000027e+02
5.330000000000000000e+02,2.362909400000000062e+02
5.340000000000000000e+02,2.364371199999999931e+02
5.350000000000000000e+02,2.365830799999999954e+02
5.360000000000000000e+02,2.367285899999999970e+02
5.370000000000000000e+02,2.368737199999999916e+02
5.380000000000000000e+02,2.370185500000000047e+02
5.390000000000000000e+02,2.371629599999999982e+02
5.400000000000000000e+02,2.373070099999999911e+02
5.410000000000000000e+02,2.374507600000000025e+02
5.420000000000000000e+02,2.375940400000000068e+02
5.430000000000000000e+02,2.377370600000000138e+02
5.440000000000000000e+02,2.378795900000000074e+02
5.450000000000000000e+02,2.380218500000000006e+02
5.460000000000000000e+02,2.381638000000000090e+02
5.470000000000000000e+02,2.383052700000000073e+02
5.480000000000000000e+02,2.384464600000000019e+02
5.490000000000000000e+02,2.385873400000000117e+02
5.500000000000000000e+02,2.387277200000000050e+02
5.510000000000000000e+02,2.388678099999999915e+02
5.520000000000000000e+02,2.390075199999999995e+02
5.530000000000000000e+02,2.391468999999999880e+02
5.540000000000000000e+02,2.392859300000000076e+02
5.550000000000000000e+02,2.394245799999999917e+02
5.560000000000000000e+02,2.395628399999999942e+02
5.570000000000000000e+02,2.397008700000000090e+02
5.580000000000000000e+02,2.398384200000000135e+02
5.590000000000000000e+02,2.399756199999999922e+02
5.600000000000000000e+02,2.401126099999999894e+02
5.610000000000000000e+02,2.402490999999999985e+02
5.620000000000000000e+02,2.403852500000000134e+02
5.630000000000000000e+02,2.405211199999999963e+02
5.640000000000000000e+02,2.406565899999999942e+02
5.650000000000000000e+02,2.407916700000000105e+02
5.660000000000000000e+02,2.409265000000000043e+02
5.670000000000000000e+02,2.410609399999999880e+02
5.680000000000000000e+02,2.411949899999999900e+02
5.690000000000000000e+02,2.413287699999999916e+02
5.700000000000000000e+02,2.414621600000000115e+02
5.710000000000000000e+02,2.415951699999999960e+02
5.720000000000000000e+02,2.417278900000000021e+02
5.730000000000000000e+02,2.418602300000000014e+02
5.740000000000000000e+02,2.419922200000000032e+02
5.750000000000000000e+02,2.421239199999999983e+02
5.760000000000000000e+02,2.422552300000000116e+02
5.770000000000000000e+02,2.423862000000000023e+02
5.780000000000000000e+02,2.425168799999999862e+02
5.790000000000000000e+02,2.426471699999999885e+02
5.800000000000000000e+02,2.427771099999999933e+02
5.810000000000000000e+02,2.429067699999999945e+02
5.820000000000000000e+02,2.430360400000000141e+02
5.830000000000000000e+02,2.431648999999999887e+02
5.840000000000000000e+02,2.432935799999999915e+02
5.850000000000000000e+02,2.434218400000000031e+02
5.860000000000000000e+02,2.435496699999999919e+02
5.870000000000000000e+02,2.436773100000000056e+02
5.880000000000000000e+02,2.438045799999999872e+02
5.890000000000000000e+02,2.439313999999999965e+02
5.900000000000000000e+02,2.440580600000000118e+02
5.910000000000000000e+02,2.441843299999999886e+02
5.920000000000000000e+02,2.443101299999999867e+02
5.930000000000000000e+02,2.444358100000000036e+02
5.940000000000000000e+02,2.445610700000000008e+02
5.950000000000000000e+02,2.446859300000000133e+02
5.960000000000000000e+02,2.448104999999999905e+02
5.970000000000000000e+02,2.449348099999999988e+02
5.980000000000000000e+02,2.450586700000000064e+02
5.990000000000000000e+02,2.451822500000000105e+02