# Time [s], Temperature [C]
1.000000000000000000e+00,2.500000000000000000e+01
2.000000000000000000e+00,2.500000000000000000e+01
3.000000000000000000e+00,2.500000000000000000e+01
4.000000000000000000e+00,2.500000000000000000e+01
5.000000000000000000e+00,2.500000800000000112e+01
6.000000000000000000e+00,2.500004600000000110e+01
7.000000000000000000e+00,2.500020599999999860e+01
8.000000000000000000e+00,2.500074000000000041e+01
9.000000000000000000e+00,2.500223400000000140e+01
1.000000000000000000e+01,2.500582100000000096e+01
1.100000000000000000e+01,2.501342400000000055e+01
1.200000000000000000e+01,2.502937700000000021e+01
1.300000000000000000e+01,2.505660100000000057e+01
1.400000000000000000e+01,2.510037000000000162e+01
1.500000000000000000e+01,2.516658999999999935e+01
1.600000000000000000e+01,2.526169399999999854e+01
1.700000000000000000e+01,2.539243499999999898e+01
1.800000000000000000e+01,2.556565900000000013e+01
1.900000000000000000e+01,2.578806099999999901e+01
2.000000000000000000e+01,2.606602699999999828e+01
2.100000000000000000e+01,2.640544099999999972e+01
2.200000000000000000e+01,2.681156199999999856e+01
2.300000000000000000e+01,2.728893300000000011e+01
2.400000000000000000e+01,2.784136000000000166e+01
2.500000000000000000e+01,2.847186100000000053e+01
2.600000000000000000e+01,2.918268399999999829e+01
2.700000000000000000e+01,2.997537799999999919e+01
2.800000000000000000e+01,3.085083799999999954e+01
2.900000000000000000e+01,3.180940100000000115e+01
3.000000000000000000e+01,3.285091800000000006e+01
3.100000000000000000e+01,3.397480399999999889e+01
3.200000000000000000e+01,3.518014099999999900e+01
3.300000000000000000e+01,3.646572100000000205e+01
3.400000000000000000e+01,3.783012399999999786e+01
3.500000000000000000e+01,3.927176999999999651e+01
3.600000000000000000e+01,4.078890200000000021e+01
3.700000000000000000e+01,4.237967299999999682e+01
3.800000000000000000e+01,4.404389599999999660e+01
3.900000000000000000e+01,4.577724800000000016e+01
4.000000000000000000e+01,4.757829300000000217e+01
4.100000000000000000e+01,4.944494999999999862e+01
4.200000000000000000e+01,5.137533599999999723e+01
4.300000000000000000e+01,5.336753800000000325e+01
4.400000000000000000e+01,5.541968200000000166e+01
4.500000000000000000e+01,5.753003700000000009e+01
4.600000000000000000e+01,5.969688000000000017e+01
4.700000000000000000e+01,6.191863299999999981e+01
4.800000000000000000e+01,6.419352700000000311e+01
4.900000000000000000e+01,6.652010300000000598e+01
5.000000000000000000e+01,6.889669000000000665e+01
5.100000000000000000e+01,7.132160199999999861e+01
5.200000000000000000e+01,7.379322799999999916e+01
5.300000000000000000e+01,7.631007400000000018e+01
5.400000000000000000e+01,7.887042200000000491e+01
5.500000000000000000e+01,8.147274000000000171e+01
5.600000000000000000e+01,8.411552399999999352e+01
5.700000000000000000e+01,8.679727900000000318e+01
5.800000000000000000e+01,8.951643400000000383e+01
5.900000000000000000e+01,9.227142299999999864e+01
6.000000000000000000e+01,9.506091299999999933e+01
6.100000000000000000e+01,9.788343799999999817e+01
6.200000000000000000e+01,1.007376600000000053e+02
6.300000000000000000e+01,1.036285000000000025e+02
6.400000000000000000e+01,1.065446500000000043e+02
6.500000000000000000e+01,1.094876299999999958e+02
6.600000000000000000e+01,1.124566700000000026e+02
6.700000000000000000e+01,1.154507799999999946e+02
6.800000000000000000e+01,1.184690700000000021e+02
6.900000000000000000e+01,1.215105599999999981e+02
7.000000000000000000e+01,1.245741299999999967e+02
7.100000000000000000e+01,1.276588399999999979e+02
7.200000000000000000e+01,1.307634299999999996e+02
7.300000000000000000e+01,1.338866299999999967e+02
7.400000000000000000e+01,1.370274200000000064e+02
7.500000000000000000e+01,1.401846299999999985e+02
7.600000000000000000e+01,1.433572100000000091e+02
7.700000000000000000e+01,1.465440199999999891e+02
7.800000000000000000e+01,1.497439400000000091e+02
7.900000000000000000e+01,1.529559000000000140e+02
8.000000000000000000e+01,1.561788300000000049e+02
8.100000000000000000e+01,1.594116999999999962e+02
8.200000000000000000e+01,1.626534100000000080e+02
8.300000000000000000e+01,1.659030799999999886e+02
8.400000000000000000e+01,1.691597899999999868e+02
8.500000000000000000e+01,1.724224100000000135e+02
8.600000000000000000e+01,1.756900500000000136e+02
8.700000000000000000e+01,1.789617200000000139e+02
8.800000000000000000e+01,1.822364200000000096e+02
8.900000000000000000e+01,1.855131499999999960e+02
9.000000000000000000e+01,1.887910300000000063e+02
9.100000000000000000e+01,1.920696100000000115e+02
9.200000000000000000e+01,1.953470000000000084e+02
9.300000000000000000e+01,1.986228299999999933e+02
9.400000000000000000e+01,2.018969700000000103e+02
9.500000000000000000e+01,2.051693999999999960e+02
9.600000000000000000e+01,2.084394700000000000e+02
9.700000000000000000e+01,2.117058900000000108e+02
9.800000000000000000e+01,2.149669800000000066e+02
9.900000000000000000e+01,2.182209799999999973e+02
1.000000000000000000e+02,2.214661900000000117e+02
1.010000000000000000e+02,2.247012499999999875e+02
1.020000000000000000e+02,2.279247699999999952e+02
1.030000000000000000e+02,2.311353900000000010e+02
1.040000000000000000e+02,2.343317299999999932e+02
1.050000000000000000e+02,2.375123600000000010e+02
1.060000000000000000e+02,2.406758600000000001e+02
1.070000000000000000e+02,2.438206600000000037e+02
1.080000000000000000e+02,2.469450799999999902e+02
1.090000000000000000e+02,2.500473299999999881e+02
1.100000000000000000e+02,2.531253800000000069e+02
1.110000000000000000e+02,2.561773400000000152e+02
1.120000000000000000e+02,2.592009300000000280e+02
1.130000000000000000e+02,2.621936600000000226e+02
1.140000000000000000e+02,2.651532900000000268e+02
1.150000000000000000e+02,2.680769300000000044e+02
1.160000000000000000e+02,2.709616700000000264e+02
1.170000000000000000e+02,2.738043799999999806e+02
1.180000000000000000e+02,2.766050099999999929e+02
1.190000000000000000e+02,2.793572700000000282e+02
1.200000000000000000e+02,2.820631999999999948e+02
1.210000000000000000e+02,2.847207000000000221e+02
1.220000000000000000e+02,2.873223899999999844e+02
1.230000000000000000e+02,2.898597100000000069e+02
1.240000000000000000e+02,2.923258999999999901e+02
1.250000000000000000e+02,2.947164599999999837e+02
1.260000000000000000e+02,2.970277699999999754e+02
1.270000000000000000e+02,2.992565299999999979e+02
1.280000000000000000e+02,3.013999600000000214e+02
1.290000000000000000e+02,3.034558700000000044e+02
1.300000000000000000e+02,3.054226100000000201e+02
1.310000000000000000e+02,3.072995900000000233e+02
1.320000000000000000e+02,3.090871300000000019e+02
1.330000000000000000e+02,3.107865899999999897e+02
1.340000000000000000e+02,3.124005099999999970e+02
1.350000000000000000e+02,3.139323699999999917e+02
1.360000000000000000e+02,3.153864699999999743e+02
1.370000000000000000e+02,3.167680399999999850e+02
1.380000000000000000e+02,3.180828900000000203e+02
1.390000000000000000e+02,3.194143399999999815e+02
1.400000000000000000e+02,3.206755400000000122e+02
1.410000000000000000e+02,3.218824200000000246e+02
1.420000000000000000e+02,3.230348200000000247e+02
1.430000000000000000e+02,3.241374500000000012e+02
1.440000000000000000e+02,3.252028199999999742e+02
1.450000000000000000e+02,3.262432299999999827e+02
1.460000000000000000e+02,3.272675800000000095e+02
1.470000000000000000e+02,3.282823200000000270e+02
1.480000000000000000e+02,3.292932700000000068e+02
1.490000000000000000e+02,3.303052099999999882e+02
1.500000000000000000e+02,3.313226900000000228e+02
1.510000000000000000e+02,3.323497300000000223e+02
1.520000000000000000e+02,3.333900499999999738e+02
1.530000000000000000e+02,3.344469900000000280e+02
1.540000000000000000e+02,3.355235000000000127e+02
1.550000000000000000e+02,3.366222799999999893e+02
1.560000000000000000e+02,3.377457899999999995e+02
1.570000000000000000e+02,3.388965499999999906e+02
1.580000000000000000e+02,3.400773899999999799e+02
1.590000000000000000e+02,3.416954000000000065e+02
1.600000000000000000e+02,3.430684800000000223e+02
1.610000000000000000e+02,3.443720400000000268e+02
1.620000000000000000e+02,3.456870400000000245e+02
1.630000000000000000e+02,3.470406500000000278e+02
1.640000000000000000e+02,3.484561800000000176e+02
1.650000000000000000e+02,3.499282200000000103e+02
1.660000000000000000e+02,3.514618199999999888e+02
1.670000000000000000e+02,3.530593600000000265e+02
1.680000000000000000e+02,3.547246999999999844e+02
1.690000000000000000e+02,3.564632899999999722e+02
1.700000000000000000e+02,3.582816500000000133e+02
1.710000000000000000e+02,3.601866800000000239e+02
1.720000000000000000e+02,3.621855199999999968e+02
1.730000000000000000e+02,3.642885999999999740e+02
1.740000000000000000e+02,3.665049099999999953e+02
1.750000000000000000e+02,3.688478700000000003e+02
1.760000000000000000e+02,3.713309899999999857e+02
1.770000000000000000e+02,3.739710400000000163e+02
1.780000000000000000e+02,3.767864099999999894e+02
1.790000000000000000e+02,3.797961399999999799e+02
1.800000000000000000e+02,3.830260599999999727e+02
1.810000000000000000e+02,3.865040599999999813e+02
1.820000000000000000e+02,3.914451300000000060e+02
1.830000000000000000e+02,3.959491300000000251e+02
1.840000000000000000e+02,4.001540800000000218e+02
1.850000000000000000e+02,4.050542599999999993e+02
1.860000000000000000e+02,4.103871800000000007e+02
1.870000000000000000e+02,4.162818899999999758e+02
1.880000000000000000e+02,4.228385299999999916e+02
1.890000000000000000e+02,4.301439799999999991e+02
1.900000000000000000e+02,4.383663000000000238e+02
1.910000000000000000e+02,4.475894799999999805e+02
1.920000000000000000e+02,4.578370400000000018e+02
1.930000000000000000e+02,4.688518100000000004e+02
1.940000000000000000e+02,4.800844399999999723e+02
1.950000000000000000e+02,4.909274599999999964e+02
1.960000000000000000e+02,5.010708000000000197e+02
1.970000000000000000e+02,5.105058300000000031e+02
1.980000000000000000e+02,5.193104200000000219e+02
1.990000000000000000e+02,5.275410200000000032e+02
2.000000000000000000e+02,5.353469800000000305e+02
2.010000000000000000e+02,5.427921099999999797e+02
2.020000000000000000e+02,5.499313399999999774e+02
2.030000000000000000e+02,5.568000500000000557e+02
2.040000000000000000e+02,5.634293199999999615e+02
2.050000000000000000e+02,5.698414900000000216e+02
2.060000000000000000e+02,5.760569500000000289e+02
2.070000000000000000e+02,5.820898399999999810e+02
2.080000000000000000e+02,5.879559900000000425e+02
2.090000000000000000e+02,5.936653400000000147e+02
2.100000000000000000e+02,5.992277199999999766e+02
2.110000000000000000e+02,6.046518600000000561e+02
2.120000000000000000e+02,6.099437900000000354e+02
2.130000000000000000e+02,6.151102899999999636e+02
2.140000000000000000e+02,6.201567999999999756e+02
2.150000000000000000e+02,6.250880100000000539e+02
2.160000000000000000e+02,6.299079000000000406e+02
2.170000000000000000e+02,6.346205400000000054e+02
2.180000000000000000e+02,6.392291300000000547e+02
2.190000000000000000e+02,6.437370600000000422e+02
2.200000000000000000e+02,6.481469100000000481e+02
2.210000000000000000e+02,6.524614299999999503e+02
2.220000000000000000e+02,6.566827399999999670e+02
2.230000000000000000e+02,6.608128699999999753e+02
2.240000000000000000e+02,6.648547999999999547e+02
2.250000000000000000e+02,6.688101199999999835e+02
2.260000000000000000e+02,6.726812700000000405e+02
2.270000000000000000e+02,6.764693600000000515e+02
2.280000000000000000e+02,6.801760900000000447e+02
2.290000000000000000e+02,6.838038900000000240e+02
2.300000000000000000e+02,6.873538800000000037e+02
2.310000000000000000e+02,6.908277600000000120e+02
2.320000000000000000e+02,6.942269900000000007e+02
2.330000000000000000e+02,6.975536499999999478e+02
2.340000000000000000e+02,7.008083500000000186e+02
2.350000000000000000e+02,7.039933499999999640e+02
2.360000000000000000e+02,7.071096199999999499e+02
2.370000000000000000e+02,7.101585700000000543e+02
2.380000000000000000e+02,7.131416600000000017e+02
2.390000000000000000e+02,7.160604899999999589e+02
2.400000000000000000e+02,7.189155899999999519e+02
2.410000000000000000e+02,7.217089799999999968e+02
2.420000000000000000e+02,7.244414699999999812e+02
2.430000000000000000e+02,7.271145599999999831e+02
2.440000000000000000e+02,7.297290000000000418e+02
2.450000000000000000e+02,7.322868700000000217e+02
2.460000000000000000e+02,7.347884500000000116e+02
2.470000000000000000e+02,7.372352899999999636e+02
2.480000000000000000e+02,7.396283600000000433e+02
2.490000000000000000e+02,7.419689899999999625e+02
2.500000000000000000e+02,7.442581199999999626e+02
2.510000000000000000e+02,7.464967000000000326e+02
2.520000000000000000e+02,7.486859699999999975e+02
2.530000000000000000e+02,7.508270300000000361e+02
2.540000000000000000e+02,7.529202299999999468e+02
2.550000000000000000e+02,7.549674099999999726e+02
2.560000000000000000e+02,7.569691199999999753e+02
2.570000000000000000e+02,7.589265100000000075e+02
2.580000000000000000e+02,7.608403299999999945e+02
2.590000000000000000e+02,7.627116099999999506e+02
2.600000000000000000e+02,7.645410799999999654e+02
2.610000000000000000e+02,7.663295299999999770e+02
2.620000000000000000e+02,7.680781200000000126e+02
2.630000000000000000e+02,7.697876599999999598e+02
2.640000000000000000e+02,7.714588599999999587e+02
2.650000000000000000e+02,7.730924700000000485e+02
2.660000000000000000e+02,7.746895100000000411e+02
2.670000000000000000e+02,7.762506700000000137e+02
2.680000000000000000e+02,7.777767300000000432e+02
2.690000000000000000e+02,7.792684900000000425e+02
2.700000000000000000e+02,7.807266799999999876e+02
2.710000000000000000e+02,7.821517900000000054e+02
2.720000000000000000e+02,7.835449800000000096e+02
2.730000000000000000e+02,7.849064899999999625e+02
2.740000000000000000e+02,7.862372400000000425e+02
2.750000000000000000e+02,7.875378399999999601e+02
2.760000000000000000e+02,7.888090799999999945e+02
2.770000000000000000e+02,7.900515100000000075e+02
2.780000000000000000e+02,7.912656200000000126e+02
2.790000000000000000e+02,7.924521499999999605e+02
2.800000000000000000e+02,7.936116899999999532e+02
2.810000000000000000e+02,7.947448100000000295e+02
2.820000000000000000e+02,7.958523599999999760e+02
2.830000000000000000e+02,7.969345100000000457e+02
2.840000000000000000e+02,7.979919399999999996e+02
2.850000000000000000e+02,7.990252699999999777e+02
2.860000000000000000e+02,8.000349700000000439e+02
2.870000000000000000e+02,8.010216699999999719e+02
2.880000000000000000e+02,8.019857200000000148e+02
2.890000000000000000e+02,8.029277299999999968e+02
2.900000000000000000e+02,8.038483300000000327e+02
2.910000000000000000e+02,8.047475600000000213e+02
2.920000000000000000e+02,8.056263999999999896e+02
2.930000000000000000e+02,8.064849900000000389e+02
2.940000000000000000e+02,8.073239700000000312e+02
2.950000000000000000e+02,8.081434900000000425e+02
2.960000000000000000e+02,8.089443999999999733e+02
2.970000000000000000e+02,8.097267500000000382e+02
2.980000000000000000e+02,8.104912100000000237e+02
2.990000000000000000e+02,8.112379200000000310e+02
3.000000000000000000e+02,8.119675899999999729e+02
3.010000000000000000e+02,8.126802999999999884e+02
3.020000000000000000e+02,8.133767100000000028e+02
3.030000000000000000e+02,8.140569500000000289e+02
3.040000000000000000e+02,8.147216200000000299e+02
3.050000000000000000e+02,8.153708500000000186e+02
3.060000000000000000e+02,8.160051300000000083e+02
3.070000000000000000e+02,8.166246899999999869e+02
3.080000000000000000e+02,8.172299799999999550e+02
3.090000000000000000e+02,8.178212300000000141e+02
3.100000000000000000e+02,8.183989299999999503e+02
3.110000000000000000e+02,8.189630700000000161e+02
3.120000000000000000e+02,8.195143399999999474e+02
3.130000000000000000e+02,8.200526700000000346e+02
3.140000000000000000e+02,8.205786699999999882e+02
3.150000000000000000e+02,8.210923500000000104e+02
3.160000000000000000e+02,8.215941800000000512e+02
3.170000000000000000e+02,8.220843499999999722e+02
3.180000000000000000e+02,8.225632299999999759e+02
3.190000000000000000e+02,8.230309399999999869e+02
3.200000000000000000e+02,8.234877900000000182e+02
3.210000000000000000e+02,8.239339599999999564e+02
3.220000000000000000e+02,8.243698100000000295e+02
3.230000000000000000e+02,8.247955299999999852e+02
3.240000000000000000e+02,8.252114299999999503e+02
3.250000000000000000e+02,8.256175500000000511e+02
3.260000000000000000e+02,8.260143399999999474e+02
3.270000000000000000e+02,8.264017900000000054e+02
3.280000000000000000e+02,8.267803300000000490e+02
3.290000000000000000e+02,8.271499599999999646e+02
3.300000000000000000e+02,8.275110499999999547e+02
3.310000000000000000e+02,8.278637099999999691e+02
3.320000000000000000e+02,8.282081299999999828e+02
3.330000000000000000e+02,8.285445600000000468e+02
3.340000000000000000e+02,8.288731099999999969e+02
3.350000000000000000e+02,8.291940299999999979e+02
3.360000000000000000e+02,8.295074499999999489e+02
3.370000000000000000e+02,8.298135399999999890e+02
3.380000000000000000e+02,8.301124899999999798e+02
3.390000000000000000e+02,8.304044800000000350e+02
3.400000000000000000e+02,8.306896400000000540e+02
3.410000000000000000e+02,8.309682000000000244e+02
3.420000000000000000e+02,8.312401700000000346e+02
3.430000000000000000e+02,8.315058599999999842e+02
3.440000000000000000e+02,8.317653199999999742e+02
3.450000000000000000e+02,8.320187399999999798e+02
3.460000000000000000e+02,8.322661699999999882e+02
3.470000000000000000e+02,8.325078700000000254e+02
3.480000000000000000e+02,8.327439000000000533e+02
3.490000000000000000e+02,8.329744899999999461e+02
3.500000000000000000e+02,8.331995799999999690e+02
3.510000000000000000e+02,8.334194899999999961e+02
3.520000000000000000e+02,8.336341599999999517e+02
3.530000000000000000e+02,8.338438700000000381e+02
3.540000000000000000e+02,8.340486499999999523e+02
3.550000000000000000e+02,8.342487200000000485e+02
3.560000000000000000e+02,8.344439700000000357e+02
3.570000000000000000e+02,8.346347700000000032e+02
3.580000000000000000e+02,8.348210400000000391e+02
3.590000000000000000e+02,8.350029899999999543e+02
3.600000000000000000e+02,8.351806000000000267e+02
3.610000000000000000e+02,8.353541900000000169e+02
3.620000000000000000e+02,8.355235599999999749e+02
3.630000000000000000e+02,8.356890899999999647e+02
3.640000000000000000e+02,8.358506499999999733e+02
3.650000000000000000e+02,8.360084799999999632e+02
3.660000000000000000e+02,8.361625400000000354e+02
3.670000000000000000e+02,8.363131100000000515e+02
3.680000000000000000e+02,8.364600199999999859e+02
3.690000000000000000e+02,8.366036400000000413e+02
3.700000000000000000e+02,8.367437099999999646e+02
3.710000000000000000e+02,8.368806799999999839e+02
3.720000000000000000e+02,8.370142200000000230e+02
3.730000000000000000e+02,8.371449000000000069e+02
3.740000000000000000e+02,8.372722199999999475e+02
3.750000000000000000e+02,8.373968499999999722e+02
3.760000000000000000e+02,8.375183100000000422e+02
3.770000000000000000e+02,8.376370799999999690e+02
3.780000000000000000e+02,8.377528700000000299e+02
3.790000000000000000e+02,8.378662699999999859e+02
3.800000000000000000e+02,8.379766799999999876e+02
3.810000000000000000e+02,8.380847800000000234e+02
3.820000000000000000e+02,8.381900600000000168e+02
3.830000000000000000e+02,8.382931499999999687e+02
3.840000000000000000e+02,8.383934900000000425e+02
3.850000000000000000e+02,8.384918800000000374e+02
3.860000000000000000e+02,8.385875200000000405e+02
3.870000000000000000e+02,8.386814000000000533e+02
3.880000000000000000e+02,8.387725799999999481e+02
3.890000000000000000e+02,8.388620600000000422e+02
3.900000000000000000e+02,8.389489700000000312e+02
3.910000000000000000e+02,8.390344199999999546e+02
3.920000000000000000e+02,8.391172500000000127e+02
3.930000000000000000e+02,8.391987299999999550e+02
3.940000000000000000e+02,8.392777099999999564e+02
3.950000000000000000e+02,8.393554100000000062e+02
3.960000000000000000e+02,8.394306599999999889e+02
3.970000000000000000e+02,8.395048199999999952e+02
3.980000000000000000e+02,8.395765400000000227e+02
3.990000000000000000e+02,8.396473399999999856e+02
4.000000000000000000e+02,8.397156400000000076e+02
4.010000000000000000e+02,8.397831999999999653e+02
4.020000000000000000e+02,8.398483300000000327e+02
4.030000000000000000e+02,8.399127799999999979e+02
4.040000000000000000e+02,8.399748499999999467e+02
4.050000000000000000e+02,8.400363800000000083e+02
4.060000000000000000e+02,8.400954000000000406e+02
4.070000000000000000e+02,8.401541099999999460e+02
4.080000000000000000e+02,8.402104500000000371e+02
4.090000000000000000e+02,8.402664800000000014e+02
4.100000000000000000e+02,8.403200699999999870e+02
4.110000000000000000e+02,8.403736000000000104e+02
4.120000000000000000e+02,8.404246200000000044e+02
4.130000000000000000e+02,8.404757700000000114e+02
4.140000000000000000e+02,8.405243500000000267e+02
4.150000000000000000e+02,8.405731799999999794e+02
4.160000000000000000e+02,8.406194500000000289e+02
4.170000000000000000e+02,8.406660799999999654e+02
4.180000000000000000e+02,8.407100799999999481e+02
4.190000000000000000e+02,8.407546399999999949e+02
4.200000000000000000e+02,8.407965100000000120e+02
4.210000000000000000e+02,8.408391100000000051e+02
4.220000000000000000e+02,8.408789100000000190e+02
4.230000000000000000e+02,8.409196200000000090e+02
4.240000000000000000e+02,8.409575200000000450e+02
4.250000000000000000e+02,8.409963999999999942e+02
4.260000000000000000e+02,8.410324100000000271e+02
4.270000000000000000e+02,8.410696400000000494e+02
4.280000000000000000e+02,8.411038200000000415e+02
4.290000000000000000e+02,8.411394699999999602e+02
4.300000000000000000e+02,8.411719399999999496e+02
4.310000000000000000e+02,8.412060500000000047e+02
4.320000000000000000e+02,8.412368800000000419e+02
4.330000000000000000e+02,8.412695300000000316e+02
4.340000000000000000e+02,8.412988299999999526e+02
4.350000000000000000e+02,8.413300799999999526e+02
4.360000000000000000e+02,8.413578499999999849e+02
4.370000000000000000e+02,8.413878799999999956e+02
4.380000000000000000e+02,8.414141799999999876e+02
4.390000000000000000e+02,8.414429300000000467e+02
4.400000000000000000e+02,8.414678300000000490e+02
4.410000000000000000e+02,8.414954199999999673e+02
4.420000000000000000e+02,8.415189800000000560e+02
4.430000000000000000e+02,8.415455299999999852e+02
4.440000000000000000e+02,8.415678100000000086e+02
4.450000000000000000e+02,8.415932599999999866e+02
4.460000000000000000e+02,8.416143200000000206e+02
4.470000000000000000e+02,8.416387899999999718e+02
4.480000000000000000e+02,8.416586300000000165e+02
4.490000000000000000e+02,8.416822499999999536e+02
4.500000000000000000e+02,8.417009299999999712e+02
4.510000000000000000e+02,8.417236299999999574e+02
4.520000000000000000e+02,8.417412100000000237e+02
4.530000000000000000e+02,8.417631199999999581e+02
4.540000000000000000e+02,8.417795999999999594e+02
4.550000000000000000e+02,8.418007800000000316e+02
4.560000000000000000e+02,8.418162200000000439e+02
4.570000000000000000e+02,8.418366700000000264e+02
4.580000000000000000e+02,8.418511399999999867e+02
4.590000000000000000e+02,8.418709099999999808e+02
4.600000000000000000e+02,8.418844000000000278e+02
4.610000000000000000e+02,8.419035599999999704e+02
4.620000000000000000e+02,8.419160799999999654e+02
4.630000000000000000e+02,8.419347500000000082e+02
4.640000000000000000e+02,8.419463500000000522e+02
4.650000000000000000e+02,8.419644799999999805e+02
4.660000000000000000e+02,8.419751599999999598e+02
4.670000000000000000e+02,8.419927999999999884e+02
4.680000000000000000e+02,8.420026199999999790e+02
4.690000000000000000e+02,8.420198400000000447e+02
4.700000000000000000e+02,8.420288100000000213e+02
4.710000000000000000e+02,8.420456500000000233e+02
4.720000000000000000e+02,8.420537699999999859e+02
4.730000000000000000e+02,8.420702499999999873e+02
4.740000000000000000e+02,8.420775099999999611e+02
4.750000000000000000e+02,8.420937500000000000e+02
4.760000000000000000e+02,8.421002200000000357e+02
4.770000000000000000e+02,8.421161499999999478e+02
4.780000000000000000e+02,8.421218300000000454e+02
4.790000000000000000e+02,8.421375100000000202e+02
4.800000000000000000e+02,8.421423999999999523e+02
4.810000000000000000e+02,8.421579600000000028e+02
4.820000000000000000e+02,8.421619899999999461e+02
4.830000000000000000e+02,8.421773699999999963e+02
4.840000000000000000e+02,8.421806599999999889e+02
4.850000000000000000e+02,8.421959799999999632e+02
4.860000000000000000e+02,8.421984300000000303e+02
4.870000000000000000e+02,8.422136799999999539e+02
4.880000000000000000e+02,8.422153899999999567e+02
4.890000000000000000e+02,8.422306499999999687e+02
4.900000000000000000e+02,8.422315099999999575e+02
4.910000000000000000e+02,8.422467699999999695e+02
4.920000000000000000e+02,8.422468900000000076e+02
4.930000000000000000e+02,8.422622099999999818e+02
4.940000000000000000e+02,8.422615399999999681e+02
4.950000000000000000e+02,8.422769200000000183e+02
4.960000000000000000e+02,8.422754499999999780e+02
4.970000000000000000e+02,8.422910200000000032e+02
4.980000000000000000e+02,8.422886999999999489e+02
4.990000000000000000e+02,8.423044399999999996e+02
5.000000000000000000e+02,8.423012700000000450e+02
5.010000000000000000e+02,8.423172600000000330e+02
5.020000000000000000e+02,8.423132900000000518e+02
5.030000000000000000e+02,8.423295299999999770e+02
5.040000000000000000e+02,8.423247099999999818e+02
5.050000000000000000e+02,8.423412499999999454e+02
5.060000000000000000e+02,8.423355699999999615e+02
5.070000000000000000e+02,8.423524800000000141e+02
5.080000000000000000e+02,8.423458900000000540e+02
5.090000000000000000e+02,8.423632199999999557e+02
5.100000000000000000e+02,8.423556499999999687e+02
5.110000000000000000e+02,8.423734699999999975e+02
5.120000000000000000e+02,8.423649900000000343e+02
5.130000000000000000e+02,8.423832400000000007e+02
5.140000000000000000e+02,8.423738399999999729e+02
5.150000000000000000e+02,8.423926400000000285e+02
5.160000000000000000e+02,8.423822000000000116e+02
5.170000000000000000e+02,8.424016699999999673e+02
5.180000000000000000e+02,8.423902000000000498e+02
5.190000000000000000e+02,8.424102799999999434e+02
5.200000000000000000e+02,8.423977099999999609e+02
5.210000000000000000e+02,8.424185199999999440e+02
5.220000000000000000e+02,8.424048500000000104e+02
5.230000000000000000e+02,8.424264500000000453e+02
5.240000000000000000e+02,8.424116199999999708e+02
5.250000000000000000e+02,8.424340799999999945e+02
5.260000000000000000e+02,8.424180300000000443e+02
5.270000000000000000e+02,8.424414100000000190e+02
5.280000000000000000e+02,8.424240700000000288e+02
5.290000000000000000e+02,8.424484300000000303e+02
5.300000000000000000e+02,8.424298099999999749e+02
5.310000000000000000e+02,8.424551400000000285e+02
5.320000000000000000e+02,8.424351799999999457e+02
5.330000000000000000e+02,8.424616700000000264e+02
5.340000000000000000e+02,8.424403099999999540e+02
5.350000000000000000e+02,8.424678999999999860e+02
5.360000000000000000e+02,8.424450699999999870e+02
5.370000000000000000e+02,8.424739399999999705e+02
5.380000000000000000e+02,8.424495200000000068e+02
5.390000000000000000e+02,8.424797399999999925e+02
5.400000000000000000e+02,8.424537400000000389e+02
5.410000000000000000e+02,8.424854100000000017e+02
5.420000000000000000e+02,8.424577000000000453e+02
5.430000000000000000e+02,8.424908400000000483e+02
5.440000000000000000e+02,8.424613600000000133e+02
5.450000000000000000e+02,8.424960899999999810e+02
5.460000000000000000e+02,8.424647200000000566e+02
5.470000000000000000e+02,8.425012199999999893e+02
5.480000000000000000e+02,8.424678999999999860e+02
5.490000000000000000e+02,8.425062299999999595e+02
5.500000000000000000e+02,8.424708299999999781e+02
5.510000000000000000e+02,8.425110499999999547e+02
5.520000000000000000e+02,8.424735100000000330e+02
5.530000000000000000e+02,8.425157500000000255e+02
5.540000000000000000e+02,8.424759500000000116e+02
5.550000000000000000e+02,8.425203900000000203e+02
5.560000000000000000e+02,8.424781500000000278e+02
5.570000000000000000e+02,8.425249000000000024e+02
5.580000000000000000e+02,8.424801599999999553e+02
5.590000000000000000e+02,8.425293000000000347e+02
5.600000000000000000e+02,8.424819300000000339e+02
5.610000000000000000e+02,8.425336300000000165e+02
5.620000000000000000e+02,8.424835199999999986e+02
5.630000000000000000e+02,8.425379599999999982e+02
5.640000000000000000e+02,8.424849199999999882e+02
5.650000000000000000e+02,8.425421800000000303e+02
5.660000000000000000e+02,8.424860800000000154e+02
5.670000000000000000e+02,8.425463899999999740e+02
5.680000000000000000e+02,8.424869999999999663e+02
5.690000000000000000e+02,8.425505399999999554e+02
5.700000000000000000e+02,8.424877900000000182e+02
5.710000000000000000e+02,8.425546299999999746e+02
5.720000000000000000e+02,8.424883399999999938e+02
5.730000000000000000e+02,8.425587799999999561e+02
5.740000000000000000e+02,8.424886500000000069e+02
5.750000000000000000e+02,8.425628699999999753e+02
5.760000000000000000e+02,8.424888300000000072e+02
5.770000000000000000e+02,8.425669599999999946e+02
5.780000000000000000e+02,8.424887700000000450e+02
5.790000000000000000e+02,8.425711099999999760e+02
5.800000000000000000e+02,8.424884600000000319e+02
5.810000000000000000e+02,8.425752599999999575e+02
5.820000000000000000e+02,8.424879799999999932e+02
5.830000000000000000e+02,8.425794700000000148e+02
5.840000000000000000e+02,8.424873000000000047e+02
5.850000000000000000e+02,8.425836799999999585e+02
5.860000000000000000e+02,8.424863900000000285e+02
5.870000000000000000e+02,8.425879499999999780e+02
5.880000000000000000e+02,8.424852899999999636e+02
5.890000000000000000e+02,8.425923500000000104e+02
5.900000000000000000e+02,8.424839500000000498e+02
5.910000000000000000e+02,8.425968000000000302e+02
5.920000000000000000e+02,8.424823599999999715e+02
5.930000000000000000e+02,8.426013199999999870e+02
5.940000000000000000e+02,8.424805300000000443e+02
5.950000000000000000e+02,8.426059599999999818e+02
5.960000000000000000e+02,8.424785200000000032e+02
5.970000000000000000e+02,8.426107200000000148e+02
5.980000000000000000e+02,8.424761999999999489e+02
5.990000000000000000e+02,8.426155999999999722e+02