# Time [s], Temperature [C]
1.000000000000000000e+00,2.499998099999999823e+01
2.000000000000000000e+00,2.970867900000000006e+01
3.000000000000000000e+00,3.240787100000000009e+01
4.000000000000000000e+00,3.461327699999999652e+01
5.000000000000000000e+00,3.646873899999999935e+01
6.000000000000000000e+00,3.810741000000000156e+01
7.000000000000000000e+00,3.958425900000000297e+01
8.000000000000000000e+00,4.093778999999999968e+01
9.000000000000000000e+00,4.219252000000000180e+01
1.000000000000000000e+01,4.336613499999999988e+01
1.100000000000000000e+01,4.447139700000000317e+01
1.200000000000000000e+01,4.551811599999999913e+01
1.300000000000000000e+01,4.651416799999999796e+01
1.400000000000000000e+01,4.746533199999999653e+01
1.500000000000000000e+01,4.837695699999999732e+01
1.600000000000000000e+01,4.925302099999999683e+01
1.700000000000000000e+01,5.009690100000000257e+01
1.800000000000000000e+01,5.091166700000000134e+01
1.900000000000000000e+01,5.169975999999999772e+01
2.000000000000000000e+01,5.246339400000000097e+01
2.100000000000000000e+01,5.320441799999999688e+01
2.200000000000000000e+01,5.392459099999999950e+01
2.300000000000000000e+01,5.462527099999999791e+01
2.400000000000000000e+01,5.530778500000000264e+01
2.500000000000000000e+01,5.597339199999999693e+01
2.600000000000000000e+01,5.662313499999999777e+01
2.700000000000000000e+01,5.725775900000000007e+01
2.800000000000000000e+01,5.787832300000000174e+01
2.900000000000000000e+01,5.848558799999999991e+01
3.000000000000000000e+01,5.908019300000000129e+01
3.100000000000000000e+01,5.966279999999999717e+01
3.200000000000000000e+01,6.023402000000000100e+01
3.300000000000000000e+01,6.079437999999999676e+01
3.400000000000000000e+01,6.134441400000000044e+01
3.500000000000000000e+01,6.188458299999999923e+01
3.600000000000000000e+01,6.241537900000000150e+01
3.700000000000000000e+01,6.293709599999999682e+01
3.800000000000000000e+01,6.345013800000000259e+01
3.900000000000000000e+01,6.395493299999999692e+01
4.000000000000000000e+01,6.445171399999999551e+01
4.100000000000000000e+01,6.494080399999999997e+01
4.200000000000000000e+01,6.542256199999999922e+01
4.300000000000000000e+01,6.589727000000000601e+01
4.400000000000000000e+01,6.636518900000000087e+01
4.500000000000000000e+01,6.682642400000000293e+01
4.600000000000000000e+01,6.728125799999999401e+01
4.700000000000000000e+01,6.772999599999999987e+01
4.800000000000000000e+01,6.817276800000000492e+01
4.900000000000000000e+01,6.860981800000000419e+01
5.000000000000000000e+01,6.904135100000000591e+01
5.100000000000000000e+01,6.946750600000000020e+01
5.200000000000000000e+01,6.988845100000000343e+01
5.300000000000000000e+01,7.030437499999999318e+01
5.400000000000000000e+01,7.071530900000000486e+01
5.500000000000000000e+01,7.112158200000000363e+01
5.600000000000000000e+01,7.152326200000000256e+01
5.700000000000000000e+01,7.192047900000000027e+01
5.800000000000000000e+01,7.231335400000000391e+01
5.900000000000000000e+01,7.270204200000000583e+01
6.000000000000000000e+01,7.308662400000000048e+01
6.100000000000000000e+01,7.346723199999999565e+01
6.200000000000000000e+01,7.384400200000000325e+01
6.300000000000000000e+01,7.421709400000000301e+01
6.400000000000000000e+01,7.458644900000000177e+01
6.500000000000000000e+01,7.495227800000000684e+01
6.600000000000000000e+01,7.531463599999999303e+01
6.700000000000000000e+01,7.567364499999999339e+01
6.800000000000000000e+01,7.602939600000000553e+01
6.900000000000000000e+01,7.638195799999999736e+01
7.000000000000000000e+01,7.673142199999999491e+01
7.100000000000000000e+01,7.707788800000000151e+01
7.200000000000000000e+01,7.742141700000000526e+01
7.300000000000000000e+01,7.776232100000000003e+01
7.400000000000000000e+01,7.810031100000000492e+01
7.500000000000000000e+01,7.843554699999999968e+01
7.600000000000000000e+01,7.876811200000000213e+01
7.700000000000000000e+01,7.909810600000000136e+01
7.800000000000000000e+01,7.942558300000000315e+01
7.900000000000000000e+01,7.975060999999999467e+01
8.000000000000000000e+01,8.007350200000000484e+01
8.100000000000000000e+01,8.039390600000000120e+01
8.200000000000000000e+01,8.071201299999999890e+01
8.300000000000000000e+01,8.102789300000000594e+01
8.400000000000000000e+01,8.134160599999999874e+01
8.500000000000000000e+01,8.165341200000000299e+01
8.600000000000000000e+01,8.196305099999999300e+01
8.700000000000000000e+01,8.227066800000000057e+01
8.800000000000000000e+01,8.257630199999999832e+01
8.900000000000000000e+01,8.288011199999999690e+01
9.000000000000000000e+01,8.318211399999999855e+01
9.100000000000000000e+01,8.348224600000000351e+01
9.200000000000000000e+01,8.378056300000000078e+01
9.300000000000000000e+01,8.407720199999999977e+01
9.400000000000000000e+01,8.437216899999999953e+01
9.500000000000000000e+01,8.466547400000000323e+01
9.600000000000000000e+01,8.495713800000000049e+01
9.700000000000000000e+01,8.524727599999999939e+01
9.800000000000000000e+01,8.553590400000000216e+01
9.900000000000000000e+01,8.582299000000000433e+01
1.000000000000000000e+02,8.610858899999999494e+01
1.010000000000000000e+02,8.639281499999999880e+01
1.020000000000000000e+02,8.667564400000000546e+01
1.030000000000000000e+02,8.695706900000000417e+01
1.040000000000000000e+02,8.723723599999999578e+01
1.050000000000000000e+02,8.751596100000000433e+01
1.060000000000000000e+02,8.779354899999999873e+01
1.070000000000000000e+02,8.806982399999999700e+01
1.080000000000000000e+02,8.834490200000000470e+01
1.090000000000000000e+02,8.861879700000000071e+01
1.100000000000000000e+02,8.889149500000000614e+01
1.110000000000000000e+02,8.916310099999999750e+01
1.120000000000000000e+02,8.943357799999999713e+01
1.130000000000000000e+02,8.970292700000000252e+01
1.140000000000000000e+02,8.997125200000000689e+01
1.150000000000000000e+02,9.023841099999999926e+01
1.160000000000000000e+02,9.050465400000000216e+01
1.170000000000000000e+02,9.076991999999999905e+01
1.180000000000000000e+02,9.103410300000000177e+01
1.190000000000000000e+02,9.129740099999999359e+01
1.200000000000000000e+02,9.155976900000000285e+01
1.210000000000000000e+02,9.182112899999999911e+01
1.220000000000000000e+02,9.208166500000000099e+01
1.230000000000000000e+02,9.234132400000000018e+01
1.240000000000000000e+02,9.260002099999999814e+01
1.250000000000000000e+02,9.285794799999999327e+01
1.260000000000000000e+02,9.311505900000000224e+01
1.270000000000000000e+02,9.337125399999999331e+01
1.280000000000000000e+02,9.362673200000000406e+01
1.290000000000000000e+02,9.388142399999999554e+01
1.300000000000000000e+02,9.413526199999999733e+01
1.310000000000000000e+02,9.438841999999999643e+01
1.320000000000000000e+02,9.464083899999999971e+01
1.330000000000000000e+02,9.489244100000000515e+01
1.340000000000000000e+02,9.514349400000000401e+01
1.350000000000000000e+02,9.539368399999999326e+01
1.360000000000000000e+02,9.564329499999999484e+01
1.370000000000000000e+02,9.589219699999999591e+01
1.380000000000000000e+02,9.614033499999999322e+01
1.390000000000000000e+02,9.638793200000000638e+01
1.400000000000000000e+02,9.663486500000000490e+01
1.410000000000000000e+02,9.688108099999999467e+01
1.420000000000000000e+02,9.712685399999999447e+01
1.430000000000000000e+02,9.737188000000000443e+01
1.440000000000000000e+02,9.761628000000000327e+01
1.450000000000000000e+02,9.786022900000000391e+01
1.460000000000000000e+02,9.810347699999999804e+01
1.470000000000000000e+02,9.834623000000000559e+01
1.480000000000000000e+02,9.858840200000000209e+01
1.490000000000000000e+02,9.882994100000000515e+01
1.500000000000000000e+02,9.907112100000000510e+01
1.510000000000000000e+02,9.931157699999999977e+01
1.520000000000000000e+02,9.955150600000000338e+01
1.530000000000000000e+02,9.979108399999999790e+01
1.540000000000000000e+02,1.000300100000000043e+02
1.550000000000000000e+02,1.002686000000000064e+02
1.560000000000000000e+02,1.005065199999999948e+02
1.570000000000000000e+02,1.007439300000000060e+02
1.580000000000000000e+02,1.009810300000000041e+02
1.590000000000000000e+02,1.012174899999999980e+02
1.600000000000000000e+02,1.014536499999999961e+02
1.610000000000000000e+02,1.016892200000000059e+02
1.620000000000000000e+02,1.019243100000000055e+02
1.630000000000000000e+02,1.021590999999999951e+02
1.640000000000000000e+02,1.023932999999999964e+02
1.650000000000000000e+02,1.026272100000000052e+02
1.660000000000000000e+02,1.028605400000000003e+02
1.670000000000000000e+02,1.030935300000000012e+02
1.680000000000000000e+02,1.033260899999999936e+02
1.690000000000000000e+02,1.035581499999999977e+02
1.700000000000000000e+02,1.037899699999999967e+02
1.710000000000000000e+02,1.040212199999999996e+02
1.720000000000000000e+02,1.042521399999999971e+02
1.730000000000000000e+02,1.044826800000000020e+02
1.740000000000000000e+02,1.047127299999999934e+02
1.750000000000000000e+02,1.049425600000000003e+02
1.760000000000000000e+02,1.051718699999999984e+02
1.770000000000000000e+02,1.054008599999999944e+02
1.780000000000000000e+02,1.056294699999999978e+02
1.790000000000000000e+02,1.058577099999999973e+02
1.800000000000000000e+02,1.060855899999999963e+02
1.810000000000000000e+02,1.063130500000000040e+02
1.820000000000000000e+02,1.065403100000000052e+02
1.830000000000000000e+02,1.067670600000000007e+02
1.840000000000000000e+02,1.069934800000000052e+02
1.850000000000000000e+02,1.072195799999999934e+02
1.860000000000000000e+02,1.074453599999999938e+02
1.870000000000000000e+02,1.076707799999999935e+02
1.880000000000000000e+02,1.078958300000000037e+02
1.890000000000000000e+02,1.081205400000000054e+02
1.900000000000000000e+02,1.083449499999999972e+02
1.910000000000000000e+02,1.085690500000000043e+02
1.920000000000000000e+02,1.087928299999999950e+02
1.930000000000000000e+02,1.090162899999999979e+02
1.940000000000000000e+02,1.092394000000000034e+02
1.950000000000000000e+02,1.094621499999999941e+02
1.960000000000000000e+02,1.096846199999999953e+02
1.970000000000000000e+02,1.099068099999999930e+02
1.980000000000000000e+02,1.101286800000000028e+02
1.990000000000000000e+02,1.103502500000000026e+02
2.000000000000000000e+02,1.105715399999999988e+02
2.010000000000000000e+02,1.107924900000000008e+02
2.020000000000000000e+02,1.110131499999999960e+02
2.030000000000000000e+02,1.112334400000000016e+02
2.040000000000000000e+02,1.114535099999999943e+02
2.050000000000000000e+02,1.116732899999999944e+02
2.060000000000000000e+02,1.118927800000000019e+02
2.070000000000000000e+02,1.121119900000000058e+02
2.080000000000000000e+02,1.123308799999999934e+02
2.090000000000000000e+02,1.125495099999999979e+02
2.100000000000000000e+02,1.127678599999999989e+02
2.110000000000000000e+02,1.129859199999999930e+02
2.120000000000000000e+02,1.132036099999999976e+02
2.130000000000000000e+02,1.134211200000000019e+02
2.140000000000000000e+02,1.136383399999999995e+02
2.150000000000000000e+02,1.138552799999999934e+02
2.160000000000000000e+02,1.140719600000000042e+02
2.170000000000000000e+02,1.142883599999999973e+02
2.180000000000000000e+02,1.145045099999999962e+02
2.190000000000000000e+02,1.147203800000000058e+02
2.200000000000000000e+02,1.149359900000000039e+02
2.210000000000000000e+02,1.151512500000000045e+02
2.220000000000000000e+02,1.153663600000000002e+02
2.230000000000000000e+02,1.155810800000000000e+02
2.240000000000000000e+02,1.157956300000000027e+02
2.250000000000000000e+02,1.160099100000000050e+02
2.260000000000000000e+02,1.162239399999999989e+02
2.270000000000000000e+02,1.164377199999999988e+02
2.280000000000000000e+02,1.166512500000000045e+02
2.290000000000000000e+02,1.168644800000000004e+02
2.300000000000000000e+02,1.170773800000000051e+02
2.310000000000000000e+02,1.172901899999999955e+02
2.320000000000000000e+02,1.175026100000000042e+02
2.330000000000000000e+02,1.177149399999999986e+02
2.340000000000000000e+02,1.179268699999999939e+02
2.350000000000000000e+02,1.181386899999999969e+02
2.360000000000000000e+02,1.183501399999999961e+02
2.370000000000000000e+02,1.185614800000000031e+02
2.380000000000000000e+02,1.187724099999999936e+02
2.390000000000000000e+02,1.189831899999999933e+02
2.400000000000000000e+02,1.191936900000000037e+02
2.410000000000000000e+02,1.194039499999999947e+02
2.420000000000000000e+02,1.196139799999999980e+02
2.430000000000000000e+02,1.198236700000000070e+02
2.440000000000000000e+02,1.200332800000000049e+02
2.450000000000000000e+02,1.202425099999999958e+02
2.460000000000000000e+02,1.204516399999999976e+02
2.470000000000000000e+02,1.206603900000000067e+02
2.480000000000000000e+02,1.208690600000000046e+02
2.490000000000000000e+02,1.210773200000000003e+02
2.500000000000000000e+02,1.212854899999999958e+02
2.510000000000000000e+02,1.214933000000000050e+02
2.520000000000000000e+02,1.217009999999999934e+02
2.530000000000000000e+02,1.219083300000000065e+02
2.540000000000000000e+02,1.221155799999999942e+02
2.550000000000000000e+02,1.223224299999999971e+02
2.560000000000000000e+02,1.225291799999999967e+02
2.570000000000000000e+02,1.227355799999999988e+02
2.580000000000000000e+02,1.229417200000000037e+02
2.590000000000000000e+02,1.231477600000000052e+02
2.600000000000000000e+02,1.233534499999999952e+02
2.610000000000000000e+02,1.235590399999999960e+02
2.620000000000000000e+02,1.237642299999999977e+02
2.630000000000000000e+02,1.239693500000000057e+02
2.640000000000000000e+02,1.241740999999999957e+02
2.650000000000000000e+02,1.243787499999999966e+02
2.660000000000000000e+02,1.245830399999999969e+02
2.670000000000000000e+02,1.247872299999999939e+02
2.680000000000000000e+02,1.249910399999999981e+02
2.690000000000000000e+02,1.251947799999999944e+02
2.700000000000000000e+02,1.253981299999999948e+02
2.710000000000000000e+02,1.256013899999999950e+02
2.720000000000000000e+02,1.258042899999999946e+02
2.730000000000000000e+02,1.260070999999999941e+02
2.740000000000000000e+02,1.262095199999999977e+02
2.750000000000000000e+02,1.264118699999999933e+02
2.760000000000000000e+02,1.266138499999999993e+02
2.770000000000000000e+02,1.268157199999999989e+02
2.780000000000000000e+02,1.270172299999999979e+02
2.790000000000000000e+02,1.272185999999999950e+02
2.800000000000000000e+02,1.274196000000000026e+02
2.810000000000000000e+02,1.276205400000000054e+02
2.820000000000000000e+02,1.278211000000000013e+02
2.830000000000000000e+02,1.280214699999999937e+02
2.840000000000000000e+02,1.282216300000000047e+02
2.850000000000000000e+02,1.284215700000000027e+02
2.860000000000000000e+02,1.286212500000000034e+02
2.870000000000000000e+02,1.288207199999999943e+02
2.880000000000000000e+02,1.290199399999999912e+02
2.890000000000000000e+02,1.292189300000000003e+02
2.900000000000000000e+02,1.294177099999999996e+02
2.910000000000000000e+02,1.296162300000000016e+02
2.920000000000000000e+02,1.298145100000000127e+02
2.930000000000000000e+02,1.300125700000000109e+02
2.940000000000000000e+02,1.302103700000000117e+02
2.950000000000000000e+02,1.304079399999999964e+02
2.960000000000000000e+02,1.306052899999999966e+02
2.970000000000000000e+02,1.308024000000000058e+02
2.980000000000000000e+02,1.309992499999999893e+02
2.990000000000000000e+02,1.311958899999999915e+02
3.000000000000000000e+02,1.313922699999999963e+02
3.010000000000000000e+02,1.315884100000000103e+02
3.020000000000000000e+02,1.317843300000000113e+02
3.030000000000000000e+02,1.319799999999999898e+02
3.040000000000000000e+02,1.321754200000000026e+02
3.050000000000000000e+02,1.323706200000000024e+02
3.060000000000000000e+02,1.325655500000000018e+02
3.070000000000000000e+02,1.327602500000000134e+02
3.080000000000000000e+02,1.329547300000000121e+02
3.090000000000000000e+02,1.331489400000000103e+02
3.100000000000000000e+02,1.333428800000000081e+02
3.110000000000000000e+02,1.335366199999999992e+02
3.120000000000000000e+02,1.337300899999999899e+02
3.130000000000000000e+02,1.339233099999999865e+02
3.140000000000000000e+02,1.341163200000000018e+02
3.150000000000000000e+02,1.343090699999999913e+02
3.160000000000000000e+02,1.345015400000000056e+02
3.170000000000000000e+02,1.346938199999999881e+02
3.180000000000000000e+02,1.348858199999999954e+02
3.190000000000000000e+02,1.350775800000000118e+02
3.200000000000000000e+02,1.352691000000000088e+02
3.210000000000000000e+02,1.354603700000000117e+02
3.220000000000000000e+02,1.356513699999999858e+02
3.230000000000000000e+02,1.358422199999999975e+02
3.240000000000000000e+02,1.360326799999999992e+02
3.250000000000000000e+02,1.362230099999999879e+02
3.260000000000000000e+02,1.364130199999999888e+02
3.270000000000000000e+02,1.366027799999999957e+02
3.280000000000000000e+02,1.367923099999999863e+02
3.290000000000000000e+02,1.369815999999999860e+02
3.300000000000000000e+02,1.371706100000000106e+02
3.310000000000000000e+02,1.373593400000000031e+02
3.320000000000000000e+02,1.375478799999999922e+02
3.330000000000000000e+02,1.377361099999999965e+02
3.340000000000000000e+02,1.379241000000000099e+02
3.350000000000000000e+02,1.381118600000000072e+02
3.360000000000000000e+02,1.382993500000000040e+02
3.370000000000000000e+02,1.384865599999999972e+02
3.380000000000000000e+02,1.386735700000000122e+02
3.390000000000000000e+02,1.388602799999999888e+02
3.400000000000000000e+02,1.390467399999999998e+02
3.410000000000000000e+02,1.392329699999999946e+02
3.420000000000000000e+02,1.394189100000000110e+02
3.430000000000000000e+02,1.396046000000000049e+02
3.440000000000000000e+02,1.397900699999999858e+02
3.450000000000000000e+02,1.399753000000000043e+02
3.460000000000000000e+02,1.401601300000000094e+02
3.470000000000000000e+02,1.403448899999999924e+02
3.480000000000000000e+02,1.405293000000000063e+02
3.490000000000000000e+02,1.407134399999999914e+02
3.500000000000000000e+02,1.408973699999999951e+02
3.510000000000000000e+02,1.410810099999999920e+02
3.520000000000000000e+02,1.412643600000000106e+02
3.530000000000000000e+02,1.414475099999999941e+02
3.540000000000000000e+02,1.416303399999999897e+02
3.550000000000000000e+02,1.418129099999999880e+02
3.560000000000000000e+02,1.419952700000000050e+02
3.570000000000000000e+02,1.421773200000000088e+02
3.580000000000000000e+02,1.423591600000000028e+02
3.590000000000000000e+02,1.425406600000000026e+02
3.600000000000000000e+02,1.427220000000000084e+02
3.610000000000000000e+02,1.429029500000000041e+02
3.620000000000000000e+02,1.430838200000000029e+02
3.630000000000000000e+02,1.432643099999999947e+02
3.640000000000000000e+02,1.434445299999999861e+02
3.650000000000000000e+02,1.436245299999999929e+02
3.660000000000000000e+02,1.438042299999999898e+02
3.670000000000000000e+02,1.439836300000000051e+02
3.680000000000000000e+02,1.441628399999999885e+02
3.690000000000000000e+02,1.443417800000000000e+02
3.700000000000000000e+02,1.445203199999999981e+02
3.710000000000000000e+02,1.446988100000000088e+02
3.720000000000000000e+02,1.448768300000000124e+02
3.730000000000000000e+02,1.450546999999999969e+02
3.740000000000000000e+02,1.452322399999999902e+02
3.750000000000000000e+02,1.454095900000000086e+02
3.760000000000000000e+02,1.455866100000000074e+02
3.770000000000000000e+02,1.457634299999999996e+02
3.780000000000000000e+02,1.459399899999999946e+02
3.790000000000000000e+02,1.461161299999999983e+02
3.800000000000000000e+02,1.462922199999999862e+02
3.810000000000000000e+02,1.464678499999999985e+02
3.820000000000000000e+02,1.466433100000000138e+02
3.830000000000000000e+02,1.468184500000000128e+02
3.840000000000000000e+02,1.469933900000000051e+02
3.850000000000000000e+02,1.471679800000000000e+02
3.860000000000000000e+02,1.473423899999999946e+02
3.870000000000000000e+02,1.475164900000000046e+02
3.880000000000000000e+02,1.476901900000000012e+02
3.890000000000000000e+02,1.478638599999999883e+02
3.900000000000000000e+02,1.480370299999999872e+02
3.910000000000000000e+02,1.482100399999999922e+02
3.920000000000000000e+02,1.483827200000000062e+02
3.930000000000000000e+02,1.485551900000000103e+02
3.940000000000000000e+02,1.487273299999999949e+02
3.950000000000000000e+02,1.488992800000000045e+02
3.960000000000000000e+02,1.490709200000000010e+02
3.970000000000000000e+02,1.492421300000000031e+02
3.980000000000000000e+02,1.494133099999999956e+02
3.990000000000000000e+02,1.495840000000000032e+02
4.000000000000000000e+02,1.497545200000000136e+02
4.010000000000000000e+02,1.499247400000000141e+02
4.020000000000000000e+02,1.500947299999999984e+02
4.030000000000000000e+02,1.502643999999999949e+02
4.040000000000000000e+02,1.504337899999999877e+02
4.050000000000000000e+02,1.506029399999999896e+02
4.060000000000000000e+02,1.507716200000000129e+02
4.070000000000000000e+02,1.509402900000000045e+02
4.080000000000000000e+02,1.511084600000000080e+02
4.090000000000000000e+02,1.512764400000000080e+02
4.100000000000000000e+02,1.514442899999999952e+02
4.110000000000000000e+02,1.516116000000000099e+02
4.120000000000000000e+02,1.517787299999999959e+02
4.130000000000000000e+02,1.519455700000000036e+02
4.140000000000000000e+02,1.521121500000000140e+02
4.150000000000000000e+02,1.522783399999999858e+02
4.160000000000000000e+02,1.524443799999999953e+02
4.170000000000000000e+02,1.526101199999999949e+02
4.180000000000000000e+02,1.527754099999999937e+02
4.190000000000000000e+02,1.529406600000000083e+02
4.200000000000000000e+02,1.531053799999999967e+02
4.210000000000000000e+02,1.532698800000000006e+02
4.220000000000000000e+02,1.534341699999999946e+02
4.230000000000000000e+02,1.535980700000000070e+02
4.240000000000000000e+02,1.537616999999999905e+02
4.250000000000000000e+02,1.539251099999999894e+02
4.260000000000000000e+02,1.540882100000000037e+02
4.270000000000000000e+02,1.542508699999999919e+02
4.280000000000000000e+02,1.544134200000000021e+02
4.290000000000000000e+02,1.545755499999999927e+02
4.300000000000000000e+02,1.547373000000000047e+02
4.310000000000000000e+02,1.548990300000000104e+02
4.320000000000000000e+02,1.550602599999999995e+02
4.330000000000000000e+02,1.552211299999999881e+02
4.340000000000000000e+02,1.553819000000000017e+02
4.350000000000000000e+02,1.555422100000000114e+02
4.360000000000000000e+02,1.557022399999999891e+02
4.370000000000000000e+02,1.558620799999999917e+02
4.380000000000000000e+02,1.560214499999999873e+02
4.390000000000000000e+02,1.561804999999999950e+02
4.400000000000000000e+02,1.563394199999999898e+02
4.410000000000000000e+02,1.564978900000000124e+02
4.420000000000000000e+02,1.566560200000000123e+02
4.430000000000000000e+02,1.568140400000000056e+02
4.440000000000000000e+02,1.569715700000000140e+02
4.450000000000000000e+02,1.571287199999999871e+02
4.460000000000000000e+02,1.572857999999999947e+02
4.470000000000000000e+02,1.574424300000000017e+02
4.480000000000000000e+02,1.575986300000000142e+02
4.490000000000000000e+02,1.577547600000000045e+02
4.500000000000000000e+02,1.579103700000000003e+02
4.510000000000000000e+02,1.580656299999999987e+02
4.520000000000000000e+02,1.582208300000000065e+02
4.530000000000000000e+02,1.583754999999999882e+02
4.540000000000000000e+02,1.585297500000000070e+02
4.550000000000000000e+02,1.586839400000000069e+02
4.560000000000000000e+02,1.588376499999999965e+02
4.570000000000000000e+02,1.589909800000000075e+02
4.580000000000000000e+02,1.591442099999999868e+02
4.590000000000000000e+02,1.592969099999999969e+02
4.600000000000000000e+02,1.594491700000000094e+02
4.610000000000000000e+02,1.596014299999999935e+02
4.620000000000000000e+02,1.597531700000000114e+02
4.630000000000000000e+02,1.599044499999999971e+02
4.640000000000000000e+02,1.600556899999999985e+02
4.650000000000000000e+02,1.602064100000000053e+02
4.660000000000000000e+02,1.603566700000000083e+02
4.670000000000000000e+02,1.605068799999999953e+02
4.680000000000000000e+02,1.606565600000000131e+02
4.690000000000000000e+02,1.608057900000000018e+02
4.700000000000000000e+02,1.609550299999999936e+02
4.710000000000000000e+02,1.611036799999999971e+02
4.720000000000000000e+02,1.612518799999999999e+02
4.730000000000000000e+02,1.614001000000000090e+02
4.740000000000000000e+02,1.615476099999999917e+02
4.750000000000000000e+02,1.616947900000000118e+02
4.760000000000000000e+02,1.618419299999999907e+02
4.770000000000000000e+02,1.619884500000000003e+02
4.780000000000000000e+02,1.621345699999999965e+02
4.790000000000000000e+02,1.622806400000000053e+02
4.800000000000000000e+02,1.624260899999999879e+02
4.810000000000000000e+02,1.625711200000000076e+02
4.820000000000000000e+02,1.627160499999999956e+02
4.830000000000000000e+02,1.628604699999999923e+02
4.840000000000000000e+02,1.630043599999999913e+02
4.850000000000000000e+02,1.631482799999999997e+02
4.860000000000000000e+02,1.632915999999999883e+02
4.870000000000000000e+02,1.634344000000000108e+02
4.880000000000000000e+02,1.635772200000000112e+02
4.890000000000000000e+02,1.637194399999999916e+02
4.900000000000000000e+02,1.638610500000000059e+02
4.910000000000000000e+02,1.640028200000000140e+02
4.920000000000000000e+02,1.641439100000000053e+02
4.930000000000000000e+02,1.642843799999999987e+02
4.940000000000000000e+02,1.644250299999999925e+02
4.950000000000000000e+02,1.645649899999999946e+02
4.960000000000000000e+02,1.647043199999999956e+02
4.970000000000000000e+02,1.648438600000000065e+02
4.980000000000000000e+02,1.649826500000000067e+02
4.990000000000000000e+02,1.651208200000000090e+02
5.000000000000000000e+02,1.652591999999999928e+02
5.010000000000000000e+02,1.653967000000000098e+02
5.020000000000000000e+02,1.655338299999999947e+02
5.030000000000000000e+02,1.656710500000000081e+02
5.040000000000000000e+02,1.658073899999999981e+02
5.050000000000000000e+02,1.659433400000000063e+02
5.060000000000000000e+02,1.660793899999999894e+02
5.070000000000000000e+02,1.662145399999999995e+02
5.080000000000000000e+02,1.663492899999999963e+02
5.090000000000000000e+02,1.664841499999999996e+02
5.100000000000000000e+02,1.666180899999999951e+02
5.110000000000000000e+02,1.667516200000000026e+02
5.120000000000000000e+02,1.668852699999999913e+02
5.130000000000000000e+02,1.670180200000000070e+02
5.140000000000000000e+02,1.671503099999999904e+02
5.150000000000000000e+02,1.672827599999999961e+02
5.160000000000000000e+02,1.674142799999999909e+02
5.170000000000000000e+02,1.675453500000000133e+02
5.180000000000000000e+02,1.676765599999999949e+02
5.190000000000000000e+02,1.678068499999999972e+02
5.200000000000000000e+02,1.679366599999999892e+02
5.210000000000000000e+02,1.680666500000000099e+02
5.220000000000000000e+02,1.681956800000000101e+02
5.230000000000000000e+02,1.683242300000000000e+02
5.240000000000000000e+02,1.684529699999999934e+02
5.250000000000000000e+02,1.685807299999999884e+02
5.260000000000000000e+02,1.687080200000000048e+02
5.270000000000000000e+02,1.688354899999999930e+02
5.280000000000000000e+02,1.689619800000000112e+02
5.290000000000000000e+02,1.690879700000000128e+02
5.300000000000000000e+02,1.692141900000000021e+02
5.310000000000000000e+02,1.693394199999999898e+02
5.320000000000000000e+02,1.694640400000000113e+02
5.330000000000000000e+02,1.695889899999999955e+02
5.340000000000000000e+02,1.697129199999999969e+02
5.350000000000000000e+02,1.698362300000000005e+02
5.360000000000000000e+02,1.699599000000000046e+02
5.370000000000000000e+02,1.700825199999999882e+02
5.380000000000000000e+02,1.702044999999999959e+02
5.390000000000000000e+02,1.703268700000000138e+02
5.400000000000000000e+02,1.704481700000000046e+02
5.410000000000000000e+02,1.705688199999999881e+02
5.420000000000000000e+02,1.706898700000000133e+02
5.430000000000000000e+02,1.708098300000000052e+02
5.440000000000000000e+02,1.709291399999999896e+02
5.450000000000000000e+02,1.710488599999999906e+02
5.460000000000000000e+02,1.711674700000000087e+02
5.470000000000000000e+02,1.712854800000000068e+02
5.480000000000000000e+02,1.714037899999999865e+02
5.490000000000000000e+02,1.715211600000000089e+02
5.500000000000000000e+02,1.716377400000000080e+02
5.510000000000000000e+02,1.717547299999999950e+02
5.520000000000000000e+02,1.718707100000000025e+02
5.530000000000000000e+02,1.719859299999999962e+02
5.540000000000000000e+02,1.721016099999999938e+02
5.550000000000000000e+02,1.722161700000000053e+02
5.560000000000000000e+02,1.723300500000000000e+02
5.570000000000000000e+02,1.724443699999999922e+02
5.580000000000000000e+02,1.725575300000000141e+02
5.590000000000000000e+02,1.726700899999999876e+02
5.600000000000000000e+02,1.727829900000000123e+02
5.610000000000000000e+02,1.728948100000000068e+02
5.620000000000000000e+02,1.730059100000000001e+02
5.630000000000000000e+02,1.731174599999999941e+02
5.640000000000000000e+02,1.732278699999999958e+02
5.650000000000000000e+02,1.733375699999999995e+02
5.660000000000000000e+02,1.734478499999999883e+02
5.670000000000000000e+02,1.735568199999999877e+02
5.680000000000000000e+02,1.736651300000000049e+02
5.690000000000000000e+02,1.737739400000000103e+02
5.700000000000000000e+02,1.738815299999999979e+02
5.710000000000000000e+02,1.739884199999999908e+02
5.720000000000000000e+02,1.740959000000000003e+02
5.730000000000000000e+02,1.742021000000000015e+02
5.740000000000000000e+02,1.743075599999999952e+02
5.750000000000000000e+02,1.744136200000000088e+02
5.760000000000000000e+02,1.745184199999999919e+02
5.770000000000000000e+02,1.746225100000000054e+02
5.780000000000000000e+02,1.747271399999999915e+02
5.790000000000000000e+02,1.748305499999999881e+02
5.800000000000000000e+02,1.749331799999999930e+02
5.810000000000000000e+02,1.750364399999999989e+02
5.820000000000000000e+02,1.751384299999999996e+02
5.830000000000000000e+02,1.752396699999999896e+02
5.840000000000000000e+02,1.753415400000000091e+02
5.850000000000000000e+02,1.754420599999999979e+02
5.860000000000000000e+02,1.755418899999999951e+02
5.870000000000000000e+02,1.756424100000000124e+02
5.880000000000000000e+02,1.757415300000000116e+02
5.890000000000000000e+02,1.758398699999999906e+02
5.900000000000000000e+02,1.759389999999999930e+02
5.910000000000000000e+02,1.760367599999999868e+02
5.920000000000000000e+02,1.761337000000000046e+02
5.930000000000000000e+02,1.762313699999999983e+02
5.940000000000000000e+02,1.763277099999999962e+02
5.950000000000000000e+02,1.764232599999999991e+02
5.960000000000000000e+02,1.765195799999999906e+02
5.970000000000000000e+02,1.766144600000000082e+02
5.980000000000000000e+02,1.767085700000000088e+02
5.990000000000000000e+02,1.768035399999999981e+02