# Time [s], Temperature [C]
1.000000000000000000e+00,2.500000000000000000e+01
2.000000000000000000e+00,2.500000000000000000e+01
3.000000000000000000e+00,2.500000000000000000e+01
4.000000000000000000e+00,2.500000000000000000e+01
5.000000000000000000e+00,2.500000199999999850e+01
6.000000000000000000e+00,2.500000999999999962e+01
7.000000000000000000e+00,2.500003999999999849e+01
8.000000000000000000e+00,2.500014099999999928e+01
9.000000000000000000e+00,2.500042699999999840e+01
1.000000000000000000e+01,2.500112199999999874e+01
1.100000000000000000e+01,2.500262599999999935e+01
1.200000000000000000e+01,2.500556200000000118e+01
1.300000000000000000e+01,2.501081500000000091e+01
1.400000000000000000e+01,2.501954100000000025e+01
1.500000000000000000e+01,2.503315500000000071e+01
1.600000000000000000e+01,2.505328799999999845e+01
1.700000000000000000e+01,2.508174100000000095e+01
1.800000000000000000e+01,2.512042599999999837e+01
1.900000000000000000e+01,2.517130500000000026e+01
2.000000000000000000e+01,2.523634099999999947e+01
2.100000000000000000e+01,2.531745499999999893e+01
2.200000000000000000e+01,2.541648299999999949e+01
2.300000000000000000e+01,2.553514499999999998e+01
2.400000000000000000e+01,2.567503500000000116e+01
2.500000000000000000e+01,2.583760499999999993e+01
2.600000000000000000e+01,2.602413900000000169e+01
2.700000000000000000e+01,2.623578499999999991e+01
2.800000000000000000e+01,2.647350899999999996e+01
2.900000000000000000e+01,2.673815300000000050e+01
3.000000000000000000e+01,2.703040299999999974e+01
3.100000000000000000e+01,2.735079199999999844e+01
3.200000000000000000e+01,2.769975099999999912e+01
3.300000000000000000e+01,2.807757000000000147e+01
3.400000000000000000e+01,2.848441299999999998e+01
3.500000000000000000e+01,2.892034500000000108e+01
3.600000000000000000e+01,2.938532999999999973e+01
3.700000000000000000e+01,2.987923199999999824e+01
3.800000000000000000e+01,3.040179600000000093e+01
3.900000000000000000e+01,3.095271500000000131e+01
4.000000000000000000e+01,3.153161599999999964e+01
4.100000000000000000e+01,3.213799699999999859e+01
4.200000000000000000e+01,3.277133200000000102e+01
4.300000000000000000e+01,3.343101099999999803e+01
4.400000000000000000e+01,3.411637900000000201e+01
4.500000000000000000e+01,3.482673599999999681e+01
4.600000000000000000e+01,3.556134399999999829e+01
4.700000000000000000e+01,3.631941199999999981e+01
4.800000000000000000e+01,3.710014300000000276e+01
4.900000000000000000e+01,3.790270199999999789e+01
5.000000000000000000e+01,3.872627599999999859e+01
5.100000000000000000e+01,3.957001499999999794e+01
5.200000000000000000e+01,4.043305999999999756e+01
5.300000000000000000e+01,4.131458700000000306e+01
5.400000000000000000e+01,4.221377900000000238e+01
5.500000000000000000e+01,4.312984099999999899e+01
5.600000000000000000e+01,4.406192399999999765e+01
5.700000000000000000e+01,4.500927699999999732e+01
5.800000000000000000e+01,4.597115699999999805e+01
5.900000000000000000e+01,4.694681200000000132e+01
6.000000000000000000e+01,4.793558500000000322e+01
6.100000000000000000e+01,4.893676399999999660e+01
6.200000000000000000e+01,4.994972599999999829e+01
6.300000000000000000e+01,5.097382000000000346e+01
6.400000000000000000e+01,5.200849199999999684e+01
6.500000000000000000e+01,5.305318100000000214e+01
6.600000000000000000e+01,5.410730399999999918e+01
6.700000000000000000e+01,5.517040999999999684e+01
6.800000000000000000e+01,5.624199699999999780e+01
6.900000000000000000e+01,5.734336499999999859e+01
7.000000000000000000e+01,5.843967099999999704e+01
7.100000000000000000e+01,5.954007000000000005e+01
7.200000000000000000e+01,6.064626700000000170e+01
7.300000000000000000e+01,6.175820900000000080e+01
7.400000000000000000e+01,6.287582799999999850e+01
7.500000000000000000e+01,6.399889399999999995e+01
7.600000000000000000e+01,6.512718200000000479e+01
7.700000000000000000e+01,6.626047499999999957e+01
7.800000000000000000e+01,6.739852899999999636e+01
7.900000000000000000e+01,6.854116100000000245e+01
8.000000000000000000e+01,6.968816400000000044e+01
8.100000000000000000e+01,7.083930999999999756e+01
8.200000000000000000e+01,7.199438499999999408e+01
8.300000000000000000e+01,7.315315999999999974e+01
8.400000000000000000e+01,7.431541400000000408e+01
8.500000000000000000e+01,7.548094199999999887e+01
8.600000000000000000e+01,7.664955100000000243e+01
8.700000000000000000e+01,7.782102999999999327e+01
8.800000000000000000e+01,7.899523899999999799e+01
8.900000000000000000e+01,8.017198899999999639e+01
9.000000000000000000e+01,8.135112800000000277e+01
9.100000000000000000e+01,8.253247100000000103e+01
9.200000000000000000e+01,8.371588900000000422e+01
9.300000000000000000e+01,8.490122200000000419e+01
9.400000000000000000e+01,8.608833300000000577e+01
9.500000000000000000e+01,8.727710000000000434e+01
9.600000000000000000e+01,8.846739200000000380e+01
9.700000000000000000e+01,8.965908100000000047e+01
9.800000000000000000e+01,9.085205100000000300e+01
9.900000000000000000e+01,9.204618100000000425e+01
1.000000000000000000e+02,9.324136400000000435e+01
1.010000000000000000e+02,9.443748499999999524e+01
1.020000000000000000e+02,9.563442999999999472e+01
1.030000000000000000e+02,9.683208500000000640e+01
1.040000000000000000e+02,9.803034999999999854e+01
1.050000000000000000e+02,9.922911100000000317e+01
1.060000000000000000e+02,1.004282599999999945e+02
1.070000000000000000e+02,1.016276900000000012e+02
1.080000000000000000e+02,1.028282099999999986e+02
1.090000000000000000e+02,1.040282700000000062e+02
1.100000000000000000e+02,1.052281600000000026e+02
1.110000000000000000e+02,1.064278699999999986e+02
1.120000000000000000e+02,1.076273400000000038e+02
1.130000000000000000e+02,1.088265200000000021e+02
1.140000000000000000e+02,1.100253600000000063e+02
1.150000000000000000e+02,1.112238200000000035e+02
1.160000000000000000e+02,1.124218400000000031e+02
1.170000000000000000e+02,1.136193399999999940e+02
1.180000000000000000e+02,1.148162200000000013e+02
1.190000000000000000e+02,1.160123200000000026e+02
1.200000000000000000e+02,1.172075200000000024e+02
1.210000000000000000e+02,1.184016299999999973e+02
1.220000000000000000e+02,1.195944999999999965e+02
1.230000000000000000e+02,1.207859499999999997e+02
1.240000000000000000e+02,1.219758099999999956e+02
1.250000000000000000e+02,1.231639299999999935e+02
1.260000000000000000e+02,1.243501100000000008e+02
1.270000000000000000e+02,1.255341899999999953e+02
1.280000000000000000e+02,1.267160099999999971e+02
1.290000000000000000e+02,1.278953900000000061e+02
1.300000000000000000e+02,1.290721699999999998e+02
1.310000000000000000e+02,1.302461900000000128e+02
1.320000000000000000e+02,1.314172199999999862e+02
1.330000000000000000e+02,1.325851700000000051e+02
1.340000000000000000e+02,1.337498300000000029e+02
1.350000000000000000e+02,1.349110300000000109e+02
1.360000000000000000e+02,1.360685599999999909e+02
1.370000000000000000e+02,1.372222399999999993e+02
1.380000000000000000e+02,1.383718599999999981e+02
1.390000000000000000e+02,1.395172300000000121e+02
1.400000000000000000e+02,1.406581600000000094e+02
1.410000000000000000e+02,1.417943899999999928e+02
1.420000000000000000e+02,1.429257399999999905e+02
1.430000000000000000e+02,1.440519999999999925e+02
1.440000000000000000e+02,1.451728799999999922e+02
1.450000000000000000e+02,1.462881600000000049e+02
1.460000000000000000e+02,1.473984499999999969e+02
1.470000000000000000e+02,1.485021999999999878e+02
1.480000000000000000e+02,1.495994699999999966e+02
1.490000000000000000e+02,1.506901400000000137e+02
1.500000000000000000e+02,1.517741499999999917e+02
1.510000000000000000e+02,1.528514099999999871e+02
1.520000000000000000e+02,1.539217199999999934e+02
1.530000000000000000e+02,1.549847100000000069e+02
1.540000000000000000e+02,1.560399600000000078e+02
1.550000000000000000e+02,1.570870099999999923e+02
1.560000000000000000e+02,1.581253199999999879e+02
1.570000000000000000e+02,1.591544600000000003e+02
1.580000000000000000e+02,1.601739699999999971e+02
1.590000000000000000e+02,1.611833599999999933e+02
1.600000000000000000e+02,1.621822200000000009e+02
1.610000000000000000e+02,1.631701199999999972e+02
1.620000000000000000e+02,1.641466200000000129e+02
1.630000000000000000e+02,1.651113400000000127e+02
1.640000000000000000e+02,1.660638399999999990e+02
1.650000000000000000e+02,1.670037199999999871e+02
1.660000000000000000e+02,1.679305699999999888e+02
1.670000000000000000e+02,1.688439899999999909e+02
1.680000000000000000e+02,1.697436199999999928e+02
1.690000000000000000e+02,1.706290899999999908e+02
1.700000000000000000e+02,1.715000200000000063e+02
1.710000000000000000e+02,1.723560600000000136e+02
1.720000000000000000e+02,1.731968799999999931e+02
1.730000000000000000e+02,1.740221999999999980e+02
1.740000000000000000e+02,1.748317000000000121e+02
1.750000000000000000e+02,1.756251399999999876e+02
1.760000000000000000e+02,1.764022699999999872e+02
1.770000000000000000e+02,1.771629200000000139e+02
1.780000000000000000e+02,1.779069200000000137e+02
1.790000000000000000e+02,1.786341600000000085e+02
1.800000000000000000e+02,1.793493300000000090e+02
1.810000000000000000e+02,1.800460199999999986e+02
1.820000000000000000e+02,1.807262299999999868e+02
1.830000000000000000e+02,1.813906200000000126e+02
1.840000000000000000e+02,1.820392300000000034e+02
1.850000000000000000e+02,1.826717500000000030e+02
1.860000000000000000e+02,1.832878900000000044e+02
1.870000000000000000e+02,1.838874500000000012e+02
1.880000000000000000e+02,1.844704900000000123e+02
1.890000000000000000e+02,1.850371199999999874e+02
1.900000000000000000e+02,1.855877700000000061e+02
1.910000000000000000e+02,1.861227700000000027e+02
1.920000000000000000e+02,1.866426400000000001e+02
1.930000000000000000e+02,1.871478999999999928e+02
1.940000000000000000e+02,1.876390199999999879e+02
1.950000000000000000e+02,1.881166100000000085e+02
1.960000000000000000e+02,1.885812099999999987e+02
1.970000000000000000e+02,1.890334599999999909e+02
1.980000000000000000e+02,1.894738900000000115e+02
1.990000000000000000e+02,1.899031099999999981e+02
2.000000000000000000e+02,1.903217199999999991e+02
2.010000000000000000e+02,1.907303599999999904e+02
2.020000000000000000e+02,1.911296199999999885e+02
2.030000000000000000e+02,1.915201000000000136e+02
2.040000000000000000e+02,1.919024000000000001e+02
2.050000000000000000e+02,1.922771099999999933e+02
2.060000000000000000e+02,1.926448399999999879e+02
2.070000000000000000e+02,1.930061200000000099e+02
2.080000000000000000e+02,1.933615299999999877e+02
2.090000000000000000e+02,1.937115799999999979e+02
2.100000000000000000e+02,1.940568100000000129e+02
2.110000000000000000e+02,1.943977500000000020e+02
2.120000000000000000e+02,1.947588499999999954e+02
2.130000000000000000e+02,1.951076500000000067e+02
2.140000000000000000e+02,1.954522399999999891e+02
2.150000000000000000e+02,1.957935799999999915e+02
2.160000000000000000e+02,1.961308400000000063e+02
2.170000000000000000e+02,1.964639599999999859e+02
2.180000000000000000e+02,1.967933800000000133e+02
2.190000000000000000e+02,1.971198699999999917e+02
2.200000000000000000e+02,1.974442600000000141e+02
2.210000000000000000e+02,1.977673499999999933e+02
2.220000000000000000e+02,1.980897400000000061e+02
2.230000000000000000e+02,1.984119900000000030e+02
2.240000000000000000e+02,1.987344699999999875e+02
2.250000000000000000e+02,1.990576199999999858e+02
2.260000000000000000e+02,1.993817099999999982e+02
2.270000000000000000e+02,1.997070600000000127e+02
2.280000000000000000e+02,2.000339500000000044e+02
2.290000000000000000e+02,2.003625600000000020e+02
2.300000000000000000e+02,2.006930999999999869e+02
2.310000000000000000e+02,2.010257599999999911e+02
2.320000000000000000e+02,2.013607000000000085e+02
2.330000000000000000e+02,2.016981000000000108e+02
2.340000000000000000e+02,2.020380900000000111e+02
2.350000000000000000e+02,2.023808699999999874e+02
2.360000000000000000e+02,2.027266099999999938e+02
2.370000000000000000e+02,2.030754499999999894e+02
2.380000000000000000e+02,2.034275100000000123e+02
2.390000000000000000e+02,2.037829299999999932e+02
2.400000000000000000e+02,2.041418500000000051e+02
2.410000000000000000e+02,2.045044599999999946e+02
2.420000000000000000e+02,2.048708000000000027e+02
2.430000000000000000e+02,2.052410399999999981e+02
2.440000000000000000e+02,2.057044500000000085e+02
2.450000000000000000e+02,2.061255500000000040e+02
2.460000000000000000e+02,2.065328700000000026e+02
2.470000000000000000e+02,2.069334900000000061e+02
2.480000000000000000e+02,2.073303999999999974e+02
2.490000000000000000e+02,2.077271299999999883e+02
2.500000000000000000e+02,2.081262999999999863e+02
2.510000000000000000e+02,2.085294800000000066e+02
2.520000000000000000e+02,2.089376499999999908e+02
2.530000000000000000e+02,2.093513800000000060e+02
2.540000000000000000e+02,2.097709999999999866e+02
2.550000000000000000e+02,2.101967199999999991e+02
2.560000000000000000e+02,2.106287800000000061e+02
2.570000000000000000e+02,2.110674600000000112e+02
2.580000000000000000e+02,2.115125299999999982e+02
2.590000000000000000e+02,2.119643399999999929e+02
2.600000000000000000e+02,2.124230000000000018e+02
2.610000000000000000e+02,2.128886099999999999e+02
2.620000000000000000e+02,2.133615000000000066e+02
2.630000000000000000e+02,2.138417100000000062e+02
2.640000000000000000e+02,2.143295300000000054e+02
2.650000000000000000e+02,2.148249999999999886e+02
2.660000000000000000e+02,2.153285400000000038e+02
2.670000000000000000e+02,2.158402299999999912e+02
2.680000000000000000e+02,2.163606100000000083e+02
2.690000000000000000e+02,2.168896300000000110e+02
2.700000000000000000e+02,2.174276900000000126e+02
2.710000000000000000e+02,2.179753900000000044e+02
2.720000000000000000e+02,2.185323600000000113e+02
2.730000000000000000e+02,2.190994399999999871e+02
2.740000000000000000e+02,2.196769600000000082e+02
2.750000000000000000e+02,2.202652999999999963e+02
2.760000000000000000e+02,2.208646400000000085e+02
2.770000000000000000e+02,2.214754800000000046e+02
2.780000000000000000e+02,2.220985699999999952e+02
2.790000000000000000e+02,2.230354800000000068e+02
2.800000000000000000e+02,2.237517899999999997e+02
2.810000000000000000e+02,2.244135599999999897e+02
2.820000000000000000e+02,2.250763200000000097e+02
2.830000000000000000e+02,2.257513700000000085e+02
2.840000000000000000e+02,2.264438900000000103e+02
2.850000000000000000e+02,2.271551200000000108e+02
2.860000000000000000e+02,2.278848299999999938e+02
2.870000000000000000e+02,2.286337699999999984e+02
2.880000000000000000e+02,2.294019900000000121e+02
2.890000000000000000e+02,2.301893799999999999e+02
2.900000000000000000e+02,2.309968000000000075e+02
2.910000000000000000e+02,2.318243999999999971e+02
2.920000000000000000e+02,2.326727099999999950e+02
2.930000000000000000e+02,2.335425299999999993e+02
2.940000000000000000e+02,2.344347400000000050e+02
2.950000000000000000e+02,2.353504599999999982e+02
2.960000000000000000e+02,2.362898700000000076e+02
2.970000000000000000e+02,2.372549400000000048e+02
2.980000000000000000e+02,2.382458000000000027e+02
2.990000000000000000e+02,2.392639800000000037e+02
3.000000000000000000e+02,2.403097999999999956e+02
3.010000000000000000e+02,2.413860799999999927e+02
3.020000000000000000e+02,2.424928099999999915e+02
3.030000000000000000e+02,2.436318100000000015e+02
3.040000000000000000e+02,2.448040599999999927e+02
3.050000000000000000e+02,2.460109099999999955e+02
3.060000000000000000e+02,2.472535599999999931e+02
3.070000000000000000e+02,2.485334499999999878e+02
3.080000000000000000e+02,2.498521100000000104e+02
3.090000000000000000e+02,2.512122999999999990e+02
3.100000000000000000e+02,2.526133600000000001e+02
3.110000000000000000e+02,2.540579700000000116e+02
3.120000000000000000e+02,2.555475199999999916e+02
3.130000000000000000e+02,2.570834699999999771e+02
3.140000000000000000e+02,2.586666900000000169e+02
3.150000000000000000e+02,2.602979100000000017e+02
3.160000000000000000e+02,2.619798000000000116e+02
3.170000000000000000e+02,2.637135299999999916e+02
3.180000000000000000e+02,2.654985699999999724e+02
3.190000000000000000e+02,2.673364300000000071e+02
3.200000000000000000e+02,2.692278099999999768e+02
3.210000000000000000e+02,2.711723600000000260e+02
3.220000000000000000e+02,2.731710800000000177e+02
3.230000000000000000e+02,2.752235099999999761e+02
3.240000000000000000e+02,2.779878199999999993e+02
3.250000000000000000e+02,2.802020899999999983e+02
3.260000000000000000e+02,2.823830899999999815e+02
3.270000000000000000e+02,2.846138599999999883e+02
3.280000000000000000e+02,2.868916300000000206e+02
3.290000000000000000e+02,2.892155500000000075e+02
3.300000000000000000e+02,2.915820600000000127e+02
3.310000000000000000e+02,2.939885899999999879e+02
3.320000000000000000e+02,2.964304500000000075e+02
3.330000000000000000e+02,2.989050300000000107e+02
3.340000000000000000e+02,3.014085099999999784e+02
3.350000000000000000e+02,3.039372599999999807e+02
3.360000000000000000e+02,3.064869100000000230e+02
3.370000000000000000e+02,3.090537400000000048e+02
3.380000000000000000e+02,3.116338799999999765e+02
3.390000000000000000e+02,3.142233899999999949e+02
3.400000000000000000e+02,3.168190299999999979e+02
3.410000000000000000e+02,3.194166000000000167e+02
3.420000000000000000e+02,3.220137899999999718e+02
3.430000000000000000e+02,3.246067800000000148e+02
3.440000000000000000e+02,3.271933000000000220e+02
3.450000000000000000e+02,3.297709699999999771e+02
3.460000000000000000e+02,3.323371300000000019e+02
3.470000000000000000e+02,3.348902299999999741e+02
3.480000000000000000e+02,3.374279500000000098e+02
3.490000000000000000e+02,3.399490700000000061e+02
3.500000000000000000e+02,3.424519300000000044e+02
3.510000000000000000e+02,3.449358799999999974e+02
3.520000000000000000e+02,3.473999900000000025e+02
3.530000000000000000e+02,3.498439000000000192e+02
3.540000000000000000e+02,3.522670899999999961e+02
3.550000000000000000e+02,3.546687299999999823e+02
3.560000000000000000e+02,3.570488300000000095e+02
3.570000000000000000e+02,3.594071700000000078e+02
3.580000000000000000e+02,3.617434999999999832e+02
3.590000000000000000e+02,3.640582600000000184e+02
3.600000000000000000e+02,3.663517800000000193e+02
3.610000000000000000e+02,3.686236599999999726e+02
3.620000000000000000e+02,3.708746899999999869e+02
3.630000000000000000e+02,3.731043700000000172e+02
3.640000000000000000e+02,3.753138400000000274e+02
3.650000000000000000e+02,3.775028699999999731e+02
3.660000000000000000e+02,3.796725200000000200e+02
3.670000000000000000e+02,3.818222000000000094e+02
3.680000000000000000e+02,3.839527299999999741e+02
3.690000000000000000e+02,3.860646399999999971e+02
3.700000000000000000e+02,3.881579600000000028e+02
3.710000000000000000e+02,3.902331800000000044e+02
3.720000000000000000e+02,3.922907999999999902e+02
3.730000000000000000e+02,3.943309899999999857e+02
3.740000000000000000e+02,3.963543399999999792e+02
3.750000000000000000e+02,3.983611799999999903e+02
3.760000000000000000e+02,4.003517800000000193e+02
3.770000000000000000e+02,4.023263200000000097e+02
3.780000000000000000e+02,4.042852800000000002e+02
3.790000000000000000e+02,4.062291599999999789e+02
3.800000000000000000e+02,4.081582000000000221e+02
3.810000000000000000e+02,4.100721700000000283e+02
3.820000000000000000e+02,4.119720500000000243e+02
3.830000000000000000e+02,4.138578800000000228e+02
3.840000000000000000e+02,4.157296799999999735e+02
3.850000000000000000e+02,4.175882599999999911e+02
3.860000000000000000e+02,4.194337199999999939e+02
3.870000000000000000e+02,4.212658999999999878e+02
3.880000000000000000e+02,4.230853299999999990e+02
3.890000000000000000e+02,4.248919700000000148e+02
3.900000000000000000e+02,4.266864600000000110e+02
3.910000000000000000e+02,4.284688400000000001e+02
3.920000000000000000e+02,4.302392899999999827e+02
3.930000000000000000e+02,4.319978899999999840e+02
3.940000000000000000e+02,4.337446299999999724e+02
3.950000000000000000e+02,4.354801899999999932e+02
3.960000000000000000e+02,4.372044999999999959e+02
3.970000000000000000e+02,4.389175099999999929e+02
3.980000000000000000e+02,4.406194800000000100e+02
3.990000000000000000e+02,4.423108500000000163e+02
4.000000000000000000e+02,4.439911799999999857e+02
4.010000000000000000e+02,4.456608600000000138e+02
4.020000000000000000e+02,4.473201000000000249e+02
4.030000000000000000e+02,4.489690200000000004e+02
4.040000000000000000e+02,4.506078200000000038e+02
4.050000000000000000e+02,4.522366000000000099e+02
4.060000000000000000e+02,4.538552900000000250e+02
4.070000000000000000e+02,4.554640800000000240e+02
4.080000000000000000e+02,4.570630800000000136e+02
4.090000000000000000e+02,4.586523399999999810e+02
4.100000000000000000e+02,4.602319299999999771e+02
4.110000000000000000e+02,4.618020300000000020e+02
4.120000000000000000e+02,4.633627000000000180e+02
4.130000000000000000e+02,4.649138500000000249e+02
4.140000000000000000e+02,4.664556900000000041e+02
4.150000000000000000e+02,4.679882799999999747e+02
4.160000000000000000e+02,4.695117799999999875e+02
4.170000000000000000e+02,4.710260000000000105e+02
4.180000000000000000e+02,4.725312500000000000e+02
4.190000000000000000e+02,4.740274699999999939e+02
4.200000000000000000e+02,4.755148899999999799e+02
4.210000000000000000e+02,4.769932299999999827e+02
4.220000000000000000e+02,4.784627399999999966e+02
4.230000000000000000e+02,4.799236799999999903e+02
4.240000000000000000e+02,4.813756999999999948e+02
4.250000000000000000e+02,4.828191499999999792e+02
4.260000000000000000e+02,4.842540000000000191e+02
4.270000000000000000e+02,4.856804200000000264e+02
4.280000000000000000e+02,4.870981800000000135e+02
4.290000000000000000e+02,4.885077200000000062e+02
4.300000000000000000e+02,4.899086300000000165e+02
4.310000000000000000e+02,4.913013599999999883e+02
4.320000000000000000e+02,4.926856399999999780e+02
4.330000000000000000e+02,4.940617700000000241e+02
4.340000000000000000e+02,4.954295700000000124e+02
4.350000000000000000e+02,4.967894299999999816e+02
4.360000000000000000e+02,4.981408700000000067e+02
4.370000000000000000e+02,4.994842199999999934e+02
4.380000000000000000e+02,5.008197900000000118e+02
4.390000000000000000e+02,5.021471599999999853e+02
4.400000000000000000e+02,5.034666100000000029e+02
4.410000000000000000e+02,5.047782900000000268e+02
4.420000000000000000e+02,5.060818199999999933e+02
4.430000000000000000e+02,5.073774399999999787e+02
4.440000000000000000e+02,5.086652799999999957e+02
4.450000000000000000e+02,5.099456799999999816e+02
4.460000000000000000e+02,5.112182000000000244e+02
4.470000000000000000e+02,5.124829099999999471e+02
4.480000000000000000e+02,5.137399299999999585e+02
4.490000000000000000e+02,5.149893200000000206e+02
4.500000000000000000e+02,5.162310800000000199e+02
4.510000000000000000e+02,5.174653899999999567e+02
4.520000000000000000e+02,5.186921399999999949e+02
4.530000000000000000e+02,5.199113800000000083e+02
4.540000000000000000e+02,5.211231699999999591e+02
4.550000000000000000e+02,5.223275800000000118e+02
4.560000000000000000e+02,5.235245999999999640e+02
4.570000000000000000e+02,5.247142300000000432e+02
4.580000000000000000e+02,5.258966100000000097e+02
4.590000000000000000e+02,5.270717200000000275e+02
4.600000000000000000e+02,5.282395599999999831e+02
4.610000000000000000e+02,5.294002100000000155e+02
4.620000000000000000e+02,5.305536499999999478e+02
4.630000000000000000e+02,5.316999499999999443e+02
4.640000000000000000e+02,5.328392300000000432e+02
4.650000000000000000e+02,5.339714999999999918e+02
4.660000000000000000e+02,5.350965599999999540e+02
4.670000000000000000e+02,5.362146000000000186e+02
4.680000000000000000e+02,5.373257399999999961e+02
4.690000000000000000e+02,5.384299899999999752e+02
4.700000000000000000e+02,5.395271599999999808e+02
4.710000000000000000e+02,5.406176100000000133e+02
4.720000000000000000e+02,5.417012899999999718e+02
4.730000000000000000e+02,5.427781400000000076e+02
4.740000000000000000e+02,5.438481399999999439e+02
4.750000000000000000e+02,5.449115600000000086e+02
4.760000000000000000e+02,5.459682000000000244e+02
4.770000000000000000e+02,5.470181300000000419e+02
4.780000000000000000e+02,5.480615199999999732e+02
4.790000000000000000e+02,5.490982099999999946e+02
4.800000000000000000e+02,5.501283600000000433e+02
4.810000000000000000e+02,5.511519799999999805e+02
4.820000000000000000e+02,5.521690700000000334e+02
4.830000000000000000e+02,5.531796900000000505e+02
4.840000000000000000e+02,5.541838999999999942e+02
4.850000000000000000e+02,5.551816999999999780e+02
4.860000000000000000e+02,5.561730999999999767e+02
4.870000000000000000e+02,5.571581999999999653e+02
4.880000000000000000e+02,5.581368999999999687e+02
4.890000000000000000e+02,5.591092499999999745e+02
4.900000000000000000e+02,5.600755599999999959e+02
4.910000000000000000e+02,5.610355200000000195e+02
4.920000000000000000e+02,5.619894399999999450e+02
4.930000000000000000e+02,5.629370099999999866e+02
4.940000000000000000e+02,5.638784799999999677e+02
4.950000000000000000e+02,5.648140300000000025e+02
4.960000000000000000e+02,5.657434100000000399e+02
4.970000000000000000e+02,5.666667499999999791e+02
4.980000000000000000e+02,5.675842300000000478e+02
4.990000000000000000e+02,5.684956700000000183e+02
5.000000000000000000e+02,5.694011199999999917e+02
5.010000000000000000e+02,5.703007199999999557e+02
5.020000000000000000e+02,5.711945200000000114e+02
5.030000000000000000e+02,5.720824599999999691e+02
5.040000000000000000e+02,5.729645400000000564e+02
5.050000000000000000e+02,5.738408200000000079e+02
5.060000000000000000e+02,5.747113000000000511e+02
5.070000000000000000e+02,5.755761700000000474e+02
5.080000000000000000e+02,5.764352999999999838e+02
5.090000000000000000e+02,5.772888199999999870e+02
5.100000000000000000e+02,5.781367199999999684e+02
5.110000000000000000e+02,5.789790000000000418e+02
5.120000000000000000e+02,5.798157300000000305e+02
5.130000000000000000e+02,5.806470299999999725e+02
5.140000000000000000e+02,5.814727799999999434e+02
5.150000000000000000e+02,5.822930900000000065e+02
5.160000000000000000e+02,5.831079099999999471e+02
5.170000000000000000e+02,5.839172999999999547e+02
5.180000000000000000e+02,5.847212500000000546e+02
5.190000000000000000e+02,5.855199599999999691e+02
5.200000000000000000e+02,5.863132900000000518e+02
5.210000000000000000e+02,5.871013799999999492e+02
5.220000000000000000e+02,5.878842200000000275e+02
5.230000000000000000e+02,5.886617999999999711e+02
5.240000000000000000e+02,5.894342699999999695e+02
5.250000000000000000e+02,5.902015400000000227e+02
5.260000000000000000e+02,5.909636199999999917e+02
5.270000000000000000e+02,5.917205199999999650e+02
5.280000000000000000e+02,5.924724099999999680e+02
5.290000000000000000e+02,5.932192400000000134e+02
5.300000000000000000e+02,5.939611200000000508e+02
5.310000000000000000e+02,5.946978800000000547e+02
5.320000000000000000e+02,5.954296900000000505e+02
5.330000000000000000e+02,5.961565600000000131e+02
5.340000000000000000e+02,5.968785400000000436e+02
5.350000000000000000e+02,5.975956999999999653e+02
5.360000000000000000e+02,5.983079199999999673e+02
5.370000000000000000e+02,5.990153199999999742e+02
5.380000000000000000e+02,5.997179599999999482e+02
5.390000000000000000e+02,6.004157699999999522e+02
5.400000000000000000e+02,6.011088300000000118e+02
5.410000000000000000e+02,6.017971800000000258e+02
5.420000000000000000e+02,6.024809000000000196e+02
5.430000000000000000e+02,6.031600300000000061e+02
5.440000000000000000e+02,6.038344100000000481e+02
5.450000000000000000e+02,6.045042099999999436e+02
5.460000000000000000e+02,6.051694300000000339e+02
5.470000000000000000e+02,6.058300799999999526e+02
5.480000000000000000e+02,6.064862100000000282e+02
5.490000000000000000e+02,6.071378799999999956e+02
5.500000000000000000e+02,6.077850300000000061e+02
5.510000000000000000e+02,6.084278000000000475e+02
5.520000000000000000e+02,6.090661000000000058e+02
5.530000000000000000e+02,6.097000699999999824e+02
5.540000000000000000e+02,6.103296500000000151e+02
5.550000000000000000e+02,6.109548300000000154e+02
5.560000000000000000e+02,6.115758100000000468e+02
5.570000000000000000e+02,6.121923799999999574e+02
5.580000000000000000e+02,6.128047500000000127e+02
5.590000000000000000e+02,6.134129000000000360e+02
5.600000000000000000e+02,6.140168499999999767e+02
5.610000000000000000e+02,6.146165799999999990e+02
5.620000000000000000e+02,6.152122200000000021e+02
5.630000000000000000e+02,6.158036499999999478e+02
5.640000000000000000e+02,6.163910499999999502e+02
5.650000000000000000e+02,6.169742999999999711e+02
5.660000000000000000e+02,6.175535899999999856e+02
5.670000000000000000e+02,6.181287800000000061e+02
5.680000000000000000e+02,6.186998899999999821e+02
5.690000000000000000e+02,6.192672099999999773e+02
5.700000000000000000e+02,6.198304399999999532e+02
5.710000000000000000e+02,6.203898299999999608e+02
5.720000000000000000e+02,6.209451900000000251e+02
5.730000000000000000e+02,6.214967000000000326e+02
5.740000000000000000e+02,6.220444300000000339e+02
5.750000000000000000e+02,6.225882599999999911e+02
5.760000000000000000e+02,6.231283600000000433e+02
5.770000000000000000e+02,6.236646100000000388e+02
5.780000000000000000e+02,6.241970199999999522e+02
5.790000000000000000e+02,6.247258299999999736e+02
5.800000000000000000e+02,6.252508500000000140e+02
5.810000000000000000e+02,6.257722199999999475e+02
5.820000000000000000e+02,6.262898599999999760e+02
5.830000000000000000e+02,6.268039599999999609e+02
5.840000000000000000e+02,6.273143300000000409e+02
5.850000000000000000e+02,6.278211099999999760e+02
5.860000000000000000e+02,6.283243999999999687e+02
5.870000000000000000e+02,6.288241000000000440e+02
5.880000000000000000e+02,6.293202499999999873e+02
5.890000000000000000e+02,6.298128699999999753e+02
5.900000000000000000e+02,6.303020599999999831e+02
5.910000000000000000e+02,6.307877799999999979e+02
5.920000000000000000e+02,6.312700200000000450e+02
5.930000000000000000e+02,6.317488399999999729e+02
5.940000000000000000e+02,6.322241800000000467e+02
5.950000000000000000e+02,6.326962899999999763e+02
5.960000000000000000e+02,6.331650399999999763e+02
5.970000000000000000e+02,6.336304300000000467e+02
5.980000000000000000e+02,6.340925300000000107e+02
5.990000000000000000e+02,6.345512700000000450e+02