# Time [s], Temperature [C]
1.000000000000000000e+00,2.499997300000000067e+01
2.000000000000000000e+00,3.233558299999999974e+01
3.000000000000000000e+00,3.640328199999999725e+01
4.000000000000000000e+00,3.972634500000000202e+01
5.000000000000000000e+00,4.249985499999999661e+01
6.000000000000000000e+00,4.494097899999999868e+01
7.000000000000000000e+00,4.713179000000000229e+01
8.000000000000000000e+00,4.913333099999999831e+01
9.000000000000000000e+00,5.098285299999999864e+01
1.000000000000000000e+01,5.270777100000000104e+01
1.100000000000000000e+01,5.432780499999999790e+01
1.200000000000000000e+01,5.585807400000000200e+01
1.300000000000000000e+01,5.731071899999999886e+01
1.400000000000000000e+01,5.869475200000000115e+01
1.500000000000000000e+01,6.001808199999999971e+01
1.600000000000000000e+01,6.128693799999999925e+01
1.700000000000000000e+01,6.250679000000000229e+01
1.800000000000000000e+01,6.368205600000000288e+01
1.900000000000000000e+01,6.481662000000000035e+01
2.000000000000000000e+01,6.591390199999999311e+01
2.100000000000000000e+01,6.697663099999999758e+01
2.200000000000000000e+01,6.800761400000000378e+01
2.300000000000000000e+01,6.900888100000000236e+01
2.400000000000000000e+01,6.998253599999999608e+01
2.500000000000000000e+01,7.093030500000000416e+01
2.600000000000000000e+01,7.185401899999999387e+01
2.700000000000000000e+01,7.275467700000000093e+01
2.800000000000000000e+01,7.363396500000000344e+01
2.900000000000000000e+01,7.449306500000000142e+01
3.000000000000000000e+01,7.533292400000000555e+01
3.100000000000000000e+01,7.615445699999999363e+01
3.200000000000000000e+01,7.695872500000000116e+01
3.300000000000000000e+01,7.774654400000000010e+01
3.400000000000000000e+01,7.851866099999999449e+01
3.500000000000000000e+01,7.927589399999999387e+01
3.600000000000000000e+01,8.001885199999999543e+01
3.700000000000000000e+01,8.074811599999999601e+01
3.800000000000000000e+01,8.146426400000000001e+01
3.900000000000000000e+01,8.216777000000000442e+01
4.000000000000000000e+01,8.285918399999999906e+01
4.100000000000000000e+01,8.353908500000000004e+01
4.200000000000000000e+01,8.420797699999999963e+01
4.300000000000000000e+01,8.486595199999999295e+01
4.400000000000000000e+01,8.551363399999999615e+01
4.500000000000000000e+01,8.615139800000000037e+01
4.600000000000000000e+01,8.677956399999999348e+01
4.700000000000000000e+01,8.739849900000000105e+01
4.800000000000000000e+01,8.800846900000000517e+01
4.900000000000000000e+01,8.860971100000000433e+01
5.000000000000000000e+01,8.920280499999999790e+01
5.100000000000000000e+01,8.978760499999999922e+01
5.200000000000000000e+01,9.036473800000000267e+01
5.300000000000000000e+01,9.093426499999999635e+01
5.400000000000000000e+01,9.149641400000000147e+01
5.500000000000000000e+01,9.205144500000000107e+01
5.600000000000000000e+01,9.259961699999999496e+01
5.700000000000000000e+01,9.314107500000000073e+01
5.800000000000000000e+01,9.367610200000000020e+01
5.900000000000000000e+01,9.420485700000000406e+01
6.000000000000000000e+01,9.472744799999999543e+01
6.100000000000000000e+01,9.524417099999999436e+01
6.200000000000000000e+01,9.575503500000000656e+01
6.300000000000000000e+01,9.626042900000000202e+01
6.400000000000000000e+01,9.676039099999999848e+01
6.500000000000000000e+01,9.725508899999999812e+01
6.600000000000000000e+01,9.774458300000000577e+01
6.700000000000000000e+01,9.822914099999999848e+01
6.800000000000000000e+01,9.870896100000000217e+01
6.900000000000000000e+01,9.918392900000000623e+01
7.000000000000000000e+01,9.965427400000000091e+01
7.100000000000000000e+01,1.001202899999999971e+02
7.200000000000000000e+01,1.005819599999999951e+02
7.300000000000000000e+01,1.010394100000000037e+02
7.400000000000000000e+01,1.014927600000000041e+02
7.500000000000000000e+01,1.019418900000000008e+02
7.600000000000000000e+01,1.023872899999999930e+02
7.700000000000000000e+01,1.028289400000000029e+02
7.800000000000000000e+01,1.032668800000000005e+02
7.900000000000000000e+01,1.037011899999999969e+02
8.000000000000000000e+01,1.041320300000000003e+02
8.100000000000000000e+01,1.045594099999999997e+02
8.200000000000000000e+01,1.049833799999999968e+02
8.300000000000000000e+01,1.054042100000000062e+02
8.400000000000000000e+01,1.058218499999999977e+02
8.500000000000000000e+01,1.062364100000000064e+02
8.600000000000000000e+01,1.066479199999999992e+02
8.700000000000000000e+01,1.070565299999999951e+02
8.800000000000000000e+01,1.074622700000000037e+02
8.900000000000000000e+01,1.078652299999999968e+02
9.000000000000000000e+01,1.082654299999999949e+02
9.100000000000000000e+01,1.086629700000000014e+02
9.200000000000000000e+01,1.090579500000000053e+02
9.300000000000000000e+01,1.094503799999999956e+02
9.400000000000000000e+01,1.098403200000000055e+02
9.500000000000000000e+01,1.102278900000000021e+02
9.600000000000000000e+01,1.106130699999999933e+02
9.700000000000000000e+01,1.109959300000000013e+02
9.800000000000000000e+01,1.113765700000000010e+02
9.900000000000000000e+01,1.117549999999999955e+02
1.000000000000000000e+02,1.121313200000000023e+02
1.010000000000000000e+02,1.125055200000000042e+02
1.020000000000000000e+02,1.128776299999999964e+02
1.030000000000000000e+02,1.132477300000000042e+02
1.040000000000000000e+02,1.136158800000000042e+02
1.050000000000000000e+02,1.139821000000000026e+02
1.060000000000000000e+02,1.143464199999999948e+02
1.070000000000000000e+02,1.147089299999999952e+02
1.080000000000000000e+02,1.150696200000000005e+02
1.090000000000000000e+02,1.154285399999999981e+02
1.100000000000000000e+02,1.157857699999999994e+02
1.110000000000000000e+02,1.161412799999999947e+02
1.120000000000000000e+02,1.164951300000000032e+02
1.130000000000000000e+02,1.168475999999999999e+02
1.140000000000000000e+02,1.171983299999999986e+02
1.150000000000000000e+02,1.175474700000000041e+02
1.160000000000000000e+02,1.178951100000000025e+02
1.170000000000000000e+02,1.182412300000000016e+02
1.180000000000000000e+02,1.185858599999999967e+02
1.190000000000000000e+02,1.189290799999999990e+02
1.200000000000000000e+02,1.192708800000000053e+02
1.210000000000000000e+02,1.196113600000000048e+02
1.220000000000000000e+02,1.199504400000000004e+02
1.230000000000000000e+02,1.202882800000000003e+02
1.240000000000000000e+02,1.206247599999999949e+02
1.250000000000000000e+02,1.209600099999999969e+02
1.260000000000000000e+02,1.212939800000000048e+02
1.270000000000000000e+02,1.216266899999999964e+02
1.280000000000000000e+02,1.219582699999999988e+02
1.290000000000000000e+02,1.222885500000000008e+02
1.300000000000000000e+02,1.226176700000000039e+02
1.310000000000000000e+02,1.229457500000000039e+02
1.320000000000000000e+02,1.232726100000000002e+02
1.330000000000000000e+02,1.235983700000000027e+02
1.340000000000000000e+02,1.239231400000000036e+02
1.350000000000000000e+02,1.242467299999999994e+02
1.360000000000000000e+02,1.245692700000000031e+02
1.370000000000000000e+02,1.248908799999999957e+02
1.380000000000000000e+02,1.252113700000000023e+02
1.390000000000000000e+02,1.255309000000000026e+02
1.400000000000000000e+02,1.258493799999999965e+02
1.410000000000000000e+02,1.261668899999999951e+02
1.420000000000000000e+02,1.264834400000000016e+02
1.430000000000000000e+02,1.267991399999999942e+02
1.440000000000000000e+02,1.271139000000000010e+02
1.450000000000000000e+02,1.274276499999999999e+02
1.460000000000000000e+02,1.277405200000000036e+02
1.470000000000000000e+02,1.280524900000000059e+02
1.480000000000000000e+02,1.283635700000000099e+02
1.490000000000000000e+02,1.286739300000000128e+02
1.500000000000000000e+02,1.289832900000000109e+02
1.510000000000000000e+02,1.292917899999999918e+02
1.520000000000000000e+02,1.295994599999999934e+02
1.530000000000000000e+02,1.299063700000000097e+02
1.540000000000000000e+02,1.302124900000000025e+02
1.550000000000000000e+02,1.305177600000000098e+02
1.560000000000000000e+02,1.308222000000000094e+02
1.570000000000000000e+02,1.311258400000000108e+02
1.580000000000000000e+02,1.314287899999999922e+02
1.590000000000000000e+02,1.317309700000000134e+02
1.600000000000000000e+02,1.320323600000000113e+02
1.610000000000000000e+02,1.323329899999999952e+02
1.620000000000000000e+02,1.326329000000000065e+02
1.630000000000000000e+02,1.329320999999999913e+02
1.640000000000000000e+02,1.332305800000000033e+02
1.650000000000000000e+02,1.335282899999999984e+02
1.660000000000000000e+02,1.338253200000000049e+02
1.670000000000000000e+02,1.341215799999999945e+02
1.680000000000000000e+02,1.344172399999999925e+02
1.690000000000000000e+02,1.347121600000000115e+02
1.700000000000000000e+02,1.350064700000000073e+02
1.710000000000000000e+02,1.353000000000000114e+02
1.720000000000000000e+02,1.355929399999999987e+02
1.730000000000000000e+02,1.358851899999999944e+02
1.740000000000000000e+02,1.361768299999999954e+02
1.750000000000000000e+02,1.364677299999999889e+02
1.760000000000000000e+02,1.367580700000000036e+02
1.770000000000000000e+02,1.370476800000000139e+02
1.780000000000000000e+02,1.373367299999999886e+02
1.790000000000000000e+02,1.376251100000000065e+02
1.800000000000000000e+02,1.379129200000000139e+02
1.810000000000000000e+02,1.382000700000000109e+02
1.820000000000000000e+02,1.384865700000000004e+02
1.830000000000000000e+02,1.387724599999999953e+02
1.840000000000000000e+02,1.390578199999999924e+02
1.850000000000000000e+02,1.393425799999999981e+02
1.860000000000000000e+02,1.396266300000000058e+02
1.870000000000000000e+02,1.399100999999999999e+02
1.880000000000000000e+02,1.401930999999999869e+02
1.890000000000000000e+02,1.404754900000000077e+02
1.900000000000000000e+02,1.407571900000000085e+02
1.910000000000000000e+02,1.410383799999999894e+02
1.920000000000000000e+02,1.413190899999999885e+02
1.930000000000000000e+02,1.415990899999999897e+02
1.940000000000000000e+02,1.418785599999999931e+02
1.950000000000000000e+02,1.421574899999999957e+02
1.960000000000000000e+02,1.424358799999999974e+02
1.970000000000000000e+02,1.427136700000000076e+02
1.980000000000000000e+02,1.429908599999999979e+02
1.990000000000000000e+02,1.432676500000000033e+02
2.000000000000000000e+02,1.435438100000000077e+02
2.010000000000000000e+02,1.438193699999999922e+02
2.020000000000000000e+02,1.440944200000000137e+02
2.030000000000000000e+02,1.443690200000000061e+02
2.040000000000000000e+02,1.446429899999999975e+02
2.050000000000000000e+02,1.449164600000000007e+02
2.060000000000000000e+02,1.451894200000000126e+02
2.070000000000000000e+02,1.454618100000000140e+02
2.080000000000000000e+02,1.457336400000000083e+02
2.090000000000000000e+02,1.460050200000000018e+02
2.100000000000000000e+02,1.462758800000000008e+02
2.110000000000000000e+02,1.465461699999999894e+02
2.120000000000000000e+02,1.468159899999999993e+02
2.130000000000000000e+02,1.470852800000000116e+02
2.140000000000000000e+02,1.473540299999999945e+02
2.150000000000000000e+02,1.476223300000000052e+02
2.160000000000000000e+02,1.478900099999999895e+02
2.170000000000000000e+02,1.481572700000000111e+02
2.180000000000000000e+02,1.484240700000000004e+02
2.190000000000000000e+02,1.486902800000000013e+02
2.200000000000000000e+02,1.489560199999999952e+02
2.210000000000000000e+02,1.492213299999999947e+02
2.220000000000000000e+02,1.494860199999999963e+02
2.230000000000000000e+02,1.497503100000000131e+02
2.240000000000000000e+02,1.500140800000000070e+02
2.250000000000000000e+02,1.502772999999999968e+02
2.260000000000000000e+02,1.505401200000000017e+02
2.270000000000000000e+02,1.508024399999999901e+02
2.280000000000000000e+02,1.510641899999999964e+02
2.290000000000000000e+02,1.513255499999999927e+02
2.300000000000000000e+02,1.515864300000000071e+02
2.310000000000000000e+02,1.518467300000000080e+02
2.320000000000000000e+02,1.521065700000000049e+02
2.330000000000000000e+02,1.523660600000000045e+02
2.340000000000000000e+02,1.526249200000000030e+02
2.350000000000000000e+02,1.528833199999999977e+02
2.360000000000000000e+02,1.531413900000000012e+02
2.370000000000000000e+02,1.533988300000000038e+02
2.380000000000000000e+02,1.536558200000000056e+02
2.390000000000000000e+02,1.539124799999999880e+02
2.400000000000000000e+02,1.541685200000000009e+02
2.410000000000000000e+02,1.544241499999999974e+02
2.420000000000000000e+02,1.546793399999999963e+02
2.430000000000000000e+02,1.549339799999999912e+02
2.440000000000000000e+02,1.551881999999999948e+02
2.450000000000000000e+02,1.554420000000000073e+02
2.460000000000000000e+02,1.556952699999999936e+02
2.470000000000000000e+02,1.559480700000000013e+02
2.480000000000000000e+02,1.562004900000000021e+02
2.490000000000000000e+02,1.564523900000000083e+02
2.500000000000000000e+02,1.567038400000000138e+02
2.510000000000000000e+02,1.569548800000000028e+02
2.520000000000000000e+02,1.572054100000000005e+02
2.530000000000000000e+02,1.574554899999999975e+02
2.540000000000000000e+02,1.577051700000000096e+02
2.550000000000000000e+02,1.579543799999999862e+02
2.560000000000000000e+02,1.582031100000000094e+02
2.570000000000000000e+02,1.584514000000000067e+02
2.580000000000000000e+02,1.586992500000000064e+02
2.590000000000000000e+02,1.589466400000000021e+02
2.600000000000000000e+02,1.591935699999999940e+02
2.610000000000000000e+02,1.594400799999999947e+02
2.620000000000000000e+02,1.596861299999999915e+02
2.630000000000000000e+02,1.599317800000000034e+02
2.640000000000000000e+02,1.601768999999999892e+02
2.650000000000000000e+02,1.604216199999999901e+02
2.660000000000000000e+02,1.606659400000000062e+02
2.670000000000000000e+02,1.609097099999999898e+02
2.680000000000000000e+02,1.611531200000000013e+02
2.690000000000000000e+02,1.613961199999999963e+02
2.700000000000000000e+02,1.616386599999999873e+02
2.710000000000000000e+02,1.618807400000000030e+02
2.720000000000000000e+02,1.621223400000000083e+02
2.730000000000000000e+02,1.623635899999999879e+02
2.740000000000000000e+02,1.626043500000000108e+02
2.750000000000000000e+02,1.628446500000000015e+02
2.760000000000000000e+02,1.630846400000000074e+02
2.770000000000000000e+02,1.633240700000000061e+02
2.780000000000000000e+02,1.635631899999999916e+02
2.790000000000000000e+02,1.638017999999999859e+02
2.800000000000000000e+02,1.640399299999999982e+02
2.810000000000000000e+02,1.642777900000000102e+02
2.820000000000000000e+02,1.645150600000000054e+02
2.830000000000000000e+02,1.647519100000000094e+02
2.840000000000000000e+02,1.649884600000000034e+02
2.850000000000000000e+02,1.652244599999999934e+02
2.860000000000000000e+02,1.654601399999999956e+02
2.870000000000000000e+02,1.656953100000000063e+02
2.880000000000000000e+02,1.659300399999999911e+02
2.890000000000000000e+02,1.661644300000000101e+02
2.900000000000000000e+02,1.663983499999999935e+02
2.910000000000000000e+02,1.666318499999999858e+02
2.920000000000000000e+02,1.668649399999999901e+02
2.930000000000000000e+02,1.670975999999999999e+02
2.940000000000000000e+02,1.673299100000000124e+02
2.950000000000000000e+02,1.675616899999999987e+02
2.960000000000000000e+02,1.677931199999999876e+02
2.970000000000000000e+02,1.680241100000000074e+02
2.980000000000000000e+02,1.682546800000000076e+02
2.990000000000000000e+02,1.684848800000000040e+02
3.000000000000000000e+02,1.687145999999999901e+02
3.010000000000000000e+02,1.689439099999999883e+02
3.020000000000000000e+02,1.691728400000000079e+02
3.030000000000000000e+02,1.694013500000000079e+02
3.040000000000000000e+02,1.696294300000000135e+02
3.050000000000000000e+02,1.698570899999999995e+02
3.060000000000000000e+02,1.700843500000000006e+02
3.070000000000000000e+02,1.703112199999999916e+02
3.080000000000000000e+02,1.705377000000000010e+02
3.090000000000000000e+02,1.707637300000000096e+02
3.100000000000000000e+02,1.709893600000000049e+02
3.110000000000000000e+02,1.712145500000000027e+02
3.120000000000000000e+02,1.714393799999999999e+02
3.130000000000000000e+02,1.716638000000000090e+02
3.140000000000000000e+02,1.718877999999999986e+02
3.150000000000000000e+02,1.721114000000000033e+02
3.160000000000000000e+02,1.723345899999999915e+02
3.170000000000000000e+02,1.725574200000000076e+02
3.180000000000000000e+02,1.727797500000000070e+02
3.190000000000000000e+02,1.730017699999999934e+02
3.200000000000000000e+02,1.732233300000000042e+02
3.210000000000000000e+02,1.734445299999999861e+02
3.220000000000000000e+02,1.736653100000000052e+02
3.230000000000000000e+02,1.738856700000000046e+02
3.240000000000000000e+02,1.741057000000000130e+02
3.250000000000000000e+02,1.743252099999999984e+02
3.260000000000000000e+02,1.745444899999999961e+02
3.270000000000000000e+02,1.747632299999999930e+02
3.280000000000000000e+02,1.749816700000000083e+02
3.290000000000000000e+02,1.751996200000000101e+02
3.300000000000000000e+02,1.754171800000000019e+02
3.310000000000000000e+02,1.756344300000000089e+02
3.320000000000000000e+02,1.758512000000000057e+02
3.330000000000000000e+02,1.760676699999999926e+02
3.340000000000000000e+02,1.762836200000000133e+02
3.350000000000000000e+02,1.764993299999999863e+02
3.360000000000000000e+02,1.767145199999999932e+02
3.370000000000000000e+02,1.769294099999999901e+02
3.380000000000000000e+02,1.771438599999999894e+02
3.390000000000000000e+02,1.773579300000000103e+02
3.400000000000000000e+02,1.775715899999999863e+02
3.410000000000000000e+02,1.777848500000000058e+02
3.420000000000000000e+02,1.779978000000000122e+02
3.430000000000000000e+02,1.782102700000000084e+02
3.440000000000000000e+02,1.784224700000000041e+02
3.450000000000000000e+02,1.786341600000000085e+02
3.460000000000000000e+02,1.788455700000000093e+02
3.470000000000000000e+02,1.790564999999999998e+02
3.480000000000000000e+02,1.792670599999999865e+02
3.490000000000000000e+02,1.794772299999999916e+02
3.500000000000000000e+02,1.796870700000000056e+02
3.510000000000000000e+02,1.798965100000000064e+02
3.520000000000000000e+02,1.801055800000000033e+02
3.530000000000000000e+02,1.803142699999999934e+02
3.540000000000000000e+02,1.805225700000000018e+02
3.550000000000000000e+02,1.807304399999999873e+02
3.560000000000000000e+02,1.809379600000000039e+02
3.570000000000000000e+02,1.811451600000000042e+02
3.580000000000000000e+02,1.813518699999999910e+02
3.590000000000000000e+02,1.815582699999999932e+02
3.600000000000000000e+02,1.817642800000000136e+02
3.610000000000000000e+02,1.819699099999999987e+02
3.620000000000000000e+02,1.821751899999999864e+02
3.630000000000000000e+02,1.823800699999999892e+02
3.640000000000000000e+02,1.825845500000000072e+02
3.650000000000000000e+02,1.827887100000000089e+02
3.660000000000000000e+02,1.829924599999999941e+02
3.670000000000000000e+02,1.831958300000000008e+02
3.680000000000000000e+02,1.833988600000000133e+02
3.690000000000000000e+02,1.836015199999999936e+02
3.700000000000000000e+02,1.838037600000000111e+02
3.710000000000000000e+02,1.840056899999999871e+02
3.720000000000000000e+02,1.842071400000000096e+02
3.730000000000000000e+02,1.844083100000000002e+02
3.740000000000000000e+02,1.846090499999999963e+02
3.750000000000000000e+02,1.848095099999999888e+02
3.760000000000000000e+02,1.850094799999999964e+02
3.770000000000000000e+02,1.852092100000000130e+02
3.780000000000000000e+02,1.854084499999999878e+02
3.790000000000000000e+02,1.856074199999999905e+02
3.800000000000000000e+02,1.858059700000000021e+02
3.810000000000000000e+02,1.860042300000000068e+02
3.820000000000000000e+02,1.862019999999999982e+02
3.830000000000000000e+02,1.863995400000000018e+02
3.840000000000000000e+02,1.865965899999999920e+02
3.850000000000000000e+02,1.867933500000000038e+02
3.860000000000000000e+02,1.869896899999999960e+02
3.870000000000000000e+02,1.871857300000000066e+02
3.880000000000000000e+02,1.873813000000000102e+02
3.890000000000000000e+02,1.875766399999999976e+02
3.900000000000000000e+02,1.877715100000000064e+02
3.910000000000000000e+02,1.879660900000000083e+02
3.920000000000000000e+02,1.881602499999999907e+02
3.930000000000000000e+02,1.883541299999999978e+02
3.940000000000000000e+02,1.885475199999999916e+02
3.950000000000000000e+02,1.887406900000000007e+02
3.960000000000000000e+02,1.889333799999999997e+02
3.970000000000000000e+02,1.891258100000000013e+02
3.980000000000000000e+02,1.893177900000000022e+02
3.990000000000000000e+02,1.895095100000000059e+02
4.000000000000000000e+02,1.897007399999999961e+02
4.010000000000000000e+02,1.898917700000000082e+02
4.020000000000000000e+02,1.900823100000000068e+02
4.030000000000000000e+02,1.902725700000000018e+02
4.040000000000000000e+02,1.904624200000000087e+02
4.050000000000000000e+02,1.906519800000000089e+02
4.060000000000000000e+02,1.908410599999999988e+02
4.070000000000000000e+02,1.910299400000000105e+02
4.080000000000000000e+02,1.912183200000000056e+02
4.090000000000000000e+02,1.914064300000000003e+02
4.100000000000000000e+02,1.915941599999999880e+02
4.110000000000000000e+02,1.917815200000000004e+02
4.120000000000000000e+02,1.919685399999999902e+02
4.130000000000000000e+02,1.921552100000000110e+02
4.140000000000000000e+02,1.923415400000000091e+02
4.150000000000000000e+02,1.925274699999999939e+02
4.160000000000000000e+02,1.927130999999999972e+02
4.170000000000000000e+02,1.928983499999999935e+02
4.180000000000000000e+02,1.930832399999999893e+02
4.190000000000000000e+02,1.932677899999999909e+02
4.200000000000000000e+02,1.934519799999999918e+02
4.210000000000000000e+02,1.936357999999999890e+02
4.220000000000000000e+02,1.938193100000000015e+02
4.230000000000000000e+02,1.940024300000000039e+02
4.240000000000000000e+02,1.941852000000000089e+02
4.250000000000000000e+02,1.943676600000000008e+02
4.260000000000000000e+02,1.945497000000000014e+02
4.270000000000000000e+02,1.947314599999999984e+02
4.280000000000000000e+02,1.949128699999999981e+02
4.290000000000000000e+02,1.950938999999999908e+02
4.300000000000000000e+02,1.952745700000000113e+02
4.310000000000000000e+02,1.954549100000000124e+02
4.320000000000000000e+02,1.956348900000000128e+02
4.330000000000000000e+02,1.958145000000000095e+02
4.340000000000000000e+02,1.959937999999999931e+02
4.350000000000000000e+02,1.961727300000000014e+02
4.360000000000000000e+02,1.963513199999999870e+02
4.370000000000000000e+02,1.965295299999999941e+02
4.380000000000000000e+02,1.967074399999999912e+02
4.390000000000000000e+02,1.968849199999999939e+02
4.400000000000000000e+02,1.970621800000000121e+02
4.410000000000000000e+02,1.972389699999999948e+02
4.420000000000000000e+02,1.974155000000000086e+02
4.430000000000000000e+02,1.975916699999999935e+02
4.440000000000000000e+02,1.977674700000000030e+02
4.450000000000000000e+02,1.979429199999999867e+02
4.460000000000000000e+02,1.981180600000000140e+02
4.470000000000000000e+02,1.982928300000000092e+02
4.480000000000000000e+02,1.984671800000000133e+02
4.490000000000000000e+02,1.986413100000000043e+02
4.500000000000000000e+02,1.988149999999999977e+02
4.510000000000000000e+02,1.989884199999999908e+02
4.520000000000000000e+02,1.991614199999999926e+02
4.530000000000000000e+02,1.993341399999999908e+02
4.540000000000000000e+02,1.995064999999999884e+02
4.550000000000000000e+02,1.996784800000000075e+02
4.560000000000000000e+02,1.998501899999999978e+02
4.570000000000000000e+02,2.000214200000000062e+02
4.580000000000000000e+02,2.001924699999999859e+02
4.590000000000000000e+02,2.003630400000000122e+02
4.600000000000000000e+02,2.005333400000000097e+02
4.610000000000000000e+02,2.007032800000000066e+02
4.620000000000000000e+02,2.008728600000000029e+02
4.630000000000000000e+02,2.010421399999999892e+02
4.640000000000000000e+02,2.012110399999999970e+02
4.650000000000000000e+02,2.013796700000000044e+02
4.660000000000000000e+02,2.015478400000000079e+02
4.670000000000000000e+02,2.017157899999999984e+02
4.680000000000000000e+02,2.018832899999999881e+02
4.690000000000000000e+02,2.020504599999999868e+02
4.700000000000000000e+02,2.022173500000000104e+02
4.710000000000000000e+02,2.023838499999999954e+02
4.720000000000000000e+02,2.025500600000000020e+02
4.730000000000000000e+02,2.027158799999999985e+02
4.740000000000000000e+02,2.028814099999999883e+02
4.750000000000000000e+02,2.030465100000000120e+02
4.760000000000000000e+02,2.032113600000000133e+02
4.770000000000000000e+02,2.033758400000000108e+02
4.780000000000000000e+02,2.035399299999999982e+02
4.790000000000000000e+02,2.037038100000000043e+02
4.800000000000000000e+02,2.038672500000000127e+02
4.810000000000000000e+02,2.040303299999999922e+02
4.820000000000000000e+02,2.041931500000000028e+02
4.830000000000000000e+02,2.043555800000000033e+02
4.840000000000000000e+02,2.045176500000000033e+02
4.850000000000000000e+02,2.046794399999999996e+02
4.860000000000000000e+02,2.048409299999999860e+02
4.870000000000000000e+02,2.050019700000000000e+02
4.880000000000000000e+02,2.051627499999999884e+02
4.890000000000000000e+02,2.053231499999999983e+02
4.900000000000000000e+02,2.054832000000000107e+02
4.910000000000000000e+02,2.056430200000000070e+02
4.920000000000000000e+02,2.058024100000000089e+02
4.930000000000000000e+02,2.059614599999999882e+02
4.940000000000000000e+02,2.061202199999999891e+02
4.950000000000000000e+02,2.062786099999999863e+02
4.960000000000000000e+02,2.064366499999999860e+02
4.970000000000000000e+02,2.065944100000000105e+02
4.980000000000000000e+02,2.067517899999999997e+02
4.990000000000000000e+02,2.069088299999999947e+02
5.000000000000000000e+02,2.070655800000000113e+02
5.010000000000000000e+02,2.072219699999999989e+02
5.020000000000000000e+02,2.073780199999999923e+02
5.030000000000000000e+02,2.075337800000000072e+02
5.040000000000000000e+02,2.076891599999999869e+02
5.050000000000000000e+02,2.078441799999999944e+02
5.060000000000000000e+02,2.079989500000000078e+02
5.070000000000000000e+02,2.081533399999999858e+02
5.080000000000000000e+02,2.083073699999999917e+02
5.090000000000000000e+02,2.084611500000000035e+02
5.100000000000000000e+02,2.086145500000000084e+02
5.110000000000000000e+02,2.087675500000000000e+02
5.120000000000000000e+02,2.089203500000000133e+02
5.130000000000000000e+02,2.090727400000000102e+02
5.140000000000000000e+02,2.092247800000000097e+02
5.150000000000000000e+02,2.093765699999999867e+02
5.160000000000000000e+02,2.095279199999999946e+02
5.170000000000000000e+02,2.096790000000000020e+02
5.180000000000000000e+02,2.098298000000000059e+02
5.190000000000000000e+02,2.099802200000000028e+02
5.200000000000000000e+02,2.101302900000000022e+02
5.210000000000000000e+02,2.102800599999999918e+02
5.220000000000000000e+02,2.104295199999999966e+02
5.230000000000000000e+02,2.105786300000000040e+02
5.240000000000000000e+02,2.107273999999999887e+02
5.250000000000000000e+02,2.108758699999999919e+02
5.260000000000000000e+02,2.110239100000000008e+02
5.270000000000000000e+02,2.111717800000000125e+02
5.280000000000000000e+02,2.113192699999999888e+02
5.290000000000000000e+02,2.114663400000000024e+02
5.300000000000000000e+02,2.116132399999999905e+02
5.310000000000000000e+02,2.117597199999999873e+02
5.320000000000000000e+02,2.119058100000000024e+02
5.330000000000000000e+02,2.120517299999999921e+02
5.340000000000000000e+02,2.121971900000000062e+02
5.350000000000000000e+02,2.123423799999999915e+02
5.360000000000000000e+02,2.124873000000000047e+02
5.370000000000000000e+02,2.126317699999999888e+02
5.380000000000000000e+02,2.127760000000000105e+02
5.390000000000000000e+02,2.129199500000000000e+02
5.400000000000000000e+02,2.130634799999999984e+02
5.410000000000000000e+02,2.132067099999999868e+02
5.420000000000000000e+02,2.133496399999999937e+02
5.430000000000000000e+02,2.134922200000000032e+02
5.440000000000000000e+02,2.136344899999999996e+02
5.450000000000000000e+02,2.137764400000000080e+02
5.460000000000000000e+02,2.139181100000000129e+02
5.470000000000000000e+02,2.140594000000000108e+02
5.480000000000000000e+02,2.142003799999999956e+02
5.490000000000000000e+02,2.143410599999999988e+02
5.500000000000000000e+02,2.144813399999999888e+02
5.510000000000000000e+02,2.146213999999999942e+02
5.520000000000000000e+02,2.147611200000000053e+02
5.530000000000000000e+02,2.149004400000000032e+02
5.540000000000000000e+02,2.150395399999999881e+02
5.550000000000000000e+02,2.151783000000000072e+02
5.560000000000000000e+02,2.153166500000000099e+02
5.570000000000000000e+02,2.154547900000000027e+02
5.580000000000000000e+02,2.155925799999999981e+02
5.590000000000000000e+02,2.157299800000000118e+02
5.600000000000000000e+02,2.158671699999999873e+02
5.610000000000000000e+02,2.160039700000000096e+02
5.620000000000000000e+02,2.161404100000000028e+02
5.630000000000000000e+02,2.162766900000000021e+02
5.640000000000000000e+02,2.164125200000000007e+02
5.650000000000000000e+02,2.165480200000000082e+02
5.660000000000000000e+02,2.166833300000000122e+02
5.670000000000000000e+02,2.168182199999999966e+02
5.680000000000000000e+02,2.169527600000000120e+02
5.690000000000000000e+02,2.170871300000000019e+02
5.700000000000000000e+02,2.172210499999999911e+02
5.710000000000000000e+02,2.173546399999999892e+02
5.720000000000000000e+02,2.174880699999999933e+02
5.730000000000000000e+02,2.176210299999999904e+02
5.740000000000000000e+02,2.177536599999999964e+02
5.750000000000000000e+02,2.178861100000000022e+02
5.760000000000000000e+02,2.180181599999999946e+02
5.770000000000000000e+02,2.181498599999999897e+02
5.780000000000000000e+02,2.182813600000000065e+02
5.790000000000000000e+02,2.184124500000000069e+02
5.800000000000000000e+02,2.185432000000000130e+02
5.810000000000000000e+02,2.186737500000000125e+02
5.820000000000000000e+02,2.188039100000000019e+02
5.830000000000000000e+02,2.189337199999999939e+02
5.840000000000000000e+02,2.190633200000000045e+02
5.850000000000000000e+02,2.191925400000000081e+02
5.860000000000000000e+02,2.193214000000000112e+02
5.870000000000000000e+02,2.194500600000000077e+02
5.880000000000000000e+02,2.195783199999999908e+02
5.890000000000000000e+02,2.197062500000000114e+02
5.900000000000000000e+02,2.198339799999999968e+02
5.910000000000000000e+02,2.199612999999999943e+02
5.920000000000000000e+02,2.200882900000000006e+02
5.930000000000000000e+02,2.202150900000000036e+02
5.940000000000000000e+02,2.203414799999999900e+02
5.950000000000000000e+02,2.204675400000000138e+02
5.960000000000000000e+02,2.205933499999999867e+02
5.970000000000000000e+02,2.207188299999999970e+02
5.980000000000000000e+02,2.208439500000000066e+02
5.990000000000000000e+02,2.209688299999999970e+02