# Time [s], Mass [Kg]
1.000000000000000000e+00,1.000000000000000000e+00
2.000000000000000000e+00,1.000000000000000000e+00
3.000000000000000000e+00,1.000000000000000000e+00
4.000000000000000000e+00,1.000000000000000000e+00
5.000000000000000000e+00,1.000000000000000000e+00
6.000000000000000000e+00,1.000000000000000000e+00
7.000000000000000000e+00,1.000000000000000000e+00
8.000000000000000000e+00,1.000000000000000000e+00
9.000000000000000000e+00,1.000000000000000000e+00
1.000000000000000000e+01,1.000000000000000000e+00
1.100000000000000000e+01,1.000000000000000000e+00
1.200000000000000000e+01,1.000000000000000000e+00
1.300000000000000000e+01,1.000000000000000000e+00
1.400000000000000000e+01,1.000000000000000000e+00
1.500000000000000000e+01,1.000000000000000000e+00
1.600000000000000000e+01,1.000000000000000000e+00
1.700000000000000000e+01,1.000000000000000000e+00
1.800000000000000000e+01,1.000000000000000000e+00
1.900000000000000000e+01,1.000000000000000000e+00
2.000000000000000000e+01,1.000000000000000000e+00
2.100000000000000000e+01,1.000000000000000000e+00
2.200000000000000000e+01,1.000000000000000000e+00
2.300000000000000000e+01,1.000000000000000000e+00
2.400000000000000000e+01,1.000000000000000000e+00
2.500000000000000000e+01,1.000000000000000000e+00
2.600000000000000000e+01,1.000000000000000000e+00
2.700000000000000000e+01,1.000000000000000000e+00
2.800000000000000000e+01,1.000000000000000000e+00
2.900000000000000000e+01,1.000000000000000000e+00
3.000000000000000000e+01,1.000000000000000000e+00
3.100000000000000000e+01,1.000000000000000000e+00
3.200000000000000000e+01,1.000000000000000000e+00
3.300000000000000000e+01,1.000000000000000000e+00
3.400000000000000000e+01,1.000000000000000000e+00
3.500000000000000000e+01,1.000000000000000000e+00
3.600000000000000000e+01,1.000000000000000000e+00
3.700000000000000000e+01,1.000000000000000000e+00
3.800000000000000000e+01,1.000000000000000000e+00
3.900000000000000000e+01,1.000000000000000000e+00
4.000000000000000000e+01,1.000000000000000000e+00
4.100000000000000000e+01,1.000000000000000000e+00
4.200000000000000000e+01,1.000000000000000000e+00
4.300000000000000000e+01,1.000000000000000000e+00
4.400000000000000000e+01,1.000000000000000000e+00
4.500000000000000000e+01,1.000000000000000000e+00
4.600000000000000000e+01,1.000000000000000000e+00
4.700000000000000000e+01,1.000000000000000000e+00
4.800000000000000000e+01,1.000000000000000000e+00
4.900000000000000000e+01,1.000000000000000000e+00
5.000000000000000000e+01,1.000000000000000000e+00
5.100000000000000000e+01,1.000000000000000000e+00
5.200000000000000000e+01,1.000000000000000000e+00
5.300000000000000000e+01,1.000000000000000000e+00
5.400000000000000000e+01,1.000000000000000000e+00
5.500000000000000000e+01,1.000000000000000000e+00
5.600000000000000000e+01,1.000000000000000000e+00
5.700000000000000000e+01,1.000000000000000000e+00
5.800000000000000000e+01,1.000000000000000000e+00
5.900000000000000000e+01,1.000000000000000000e+00
6.000000000000000000e+01,1.000000000000000000e+00
6.100000000000000000e+01,1.000000000000000000e+00
6.200000000000000000e+01,1.000000000000000000e+00
6.300000000000000000e+01,1.000000000000000000e+00
6.400000000000000000e+01,1.000000000000000000e+00
6.500000000000000000e+01,1.000000000000000000e+00
6.600000000000000000e+01,1.000000000000000000e+00
6.700000000000000000e+01,1.000000000000000000e+00
6.800000000000000000e+01,1.000000000000000000e+00
6.900000000000000000e+01,1.000000000000000000e+00
7.000000000000000000e+01,1.000000000000000000e+00
7.100000000000000000e+01,1.000000000000000000e+00
7.200000000000000000e+01,1.000000000000000000e+00
7.300000000000000000e+01,1.000000000000000000e+00
7.400000000000000000e+01,1.000000000000000000e+00
7.500000000000000000e+01,1.000000000000000000e+00
7.600000000000000000e+01,1.000000000000000000e+00
7.700000000000000000e+01,1.000000000000000000e+00
7.800000000000000000e+01,1.000000000000000000e+00
7.900000000000000000e+01,1.000000000000000000e+00
8.000000000000000000e+01,1.000000000000000000e+00
8.100000000000000000e+01,1.000000000000000000e+00
8.200000000000000000e+01,1.000000000000000000e+00
8.300000000000000000e+01,1.000000000000000000e+00
8.400000000000000000e+01,1.000000000000000000e+00
8.500000000000000000e+01,1.000000000000000000e+00
8.600000000000000000e+01,1.000000000000000000e+00
8.700000000000000000e+01,1.000000000000000000e+00
8.800000000000000000e+01,1.000000000000000000e+00
8.900000000000000000e+01,1.000000000000000000e+00
9.000000000000000000e+01,1.000000000000000000e+00
9.100000000000000000e+01,1.000000000000000000e+00
9.200000000000000000e+01,1.000000000000000000e+00
9.300000000000000000e+01,1.000000000000000000e+00
9.400000000000000000e+01,1.000000000000000000e+00
9.500000000000000000e+01,1.000000000000000000e+00
9.600000000000000000e+01,1.000000000000000000e+00
9.700000000000000000e+01,1.000000000000000000e+00
9.800000000000000000e+01,1.000000000000000000e+00
9.900000000000000000e+01,1.000000000000000000e+00
1.000000000000000000e+02,1.000000000000000000e+00
1.010000000000000000e+02,1.000000000000000000e+00
1.020000000000000000e+02,1.000000000000000000e+00
1.030000000000000000e+02,1.000000000000000000e+00
1.040000000000000000e+02,1.000000000000000000e+00
1.050000000000000000e+02,1.000000000000000000e+00
1.060000000000000000e+02,1.000000000000000000e+00
1.070000000000000000e+02,1.000000000000000000e+00
1.080000000000000000e+02,1.000000000000000000e+00
1.090000000000000000e+02,1.000000000000000000e+00
1.100000000000000000e+02,1.000000000000000000e+00
1.110000000000000000e+02,1.000000000000000000e+00
1.120000000000000000e+02,1.000000000000000000e+00
1.130000000000000000e+02,1.000000000000000000e+00
1.140000000000000000e+02,1.000000000000000000e+00
1.150000000000000000e+02,1.000000000000000000e+00
1.160000000000000000e+02,1.000000000000000000e+00
1.170000000000000000e+02,1.000000000000000000e+00
1.180000000000000000e+02,1.000000000000000000e+00
1.190000000000000000e+02,1.000000000000000000e+00
1.200000000000000000e+02,1.000000000000000000e+00
1.210000000000000000e+02,1.000000000000000000e+00
1.220000000000000000e+02,1.000000000000000000e+00
1.230000000000000000e+02,1.000000000000000000e+00
1.240000000000000000e+02,1.000000000000000000e+00
1.250000000000000000e+02,1.000000000000000000e+00
1.260000000000000000e+02,1.000000000000000000e+00
1.270000000000000000e+02,1.000000000000000000e+00
1.280000000000000000e+02,1.000000000000000000e+00
1.290000000000000000e+02,1.000000000000000000e+00
1.300000000000000000e+02,1.000000000000000000e+00
1.310000000000000000e+02,1.000000000000000000e+00
1.320000000000000000e+02,1.000000000000000000e+00
1.330000000000000000e+02,1.000000000000000000e+00
1.340000000000000000e+02,1.000000000000000000e+00
1.350000000000000000e+02,1.000000000000000000e+00
1.360000000000000000e+02,1.000000000000000000e+00
1.370000000000000000e+02,1.000000000000000000e+00
1.380000000000000000e+02,1.000000000000000000e+00
1.390000000000000000e+02,1.000000000000000000e+00
1.400000000000000000e+02,1.000000000000000000e+00
1.410000000000000000e+02,1.000000000000000000e+00
1.420000000000000000e+02,1.000000000000000000e+00
1.430000000000000000e+02,1.000000000000000000e+00
1.440000000000000000e+02,1.000000000000000000e+00
1.450000000000000000e+02,1.000000000000000000e+00
1.460000000000000000e+02,1.000000000000000000e+00
1.470000000000000000e+02,1.000000000000000000e+00
1.480000000000000000e+02,1.000000000000000000e+00
1.490000000000000000e+02,1.000000000000000000e+00
1.500000000000000000e+02,1.000000000000000000e+00
1.510000000000000000e+02,1.000000000000000000e+00
1.520000000000000000e+02,1.000000000000000000e+00
1.530000000000000000e+02,1.000000000000000000e+00
1.540000000000000000e+02,1.000000000000000000e+00
1.550000000000000000e+02,1.000000000000000000e+00
1.560000000000000000e+02,1.000000000000000000e+00
1.570000000000000000e+02,1.000000000000000000e+00
1.580000000000000000e+02,1.000000000000000000e+00
1.590000000000000000e+02,1.000000000000000000e+00
1.600000000000000000e+02,1.000000000000000000e+00
1.610000000000000000e+02,1.000000000000000000e+00
1.620000000000000000e+02,1.000000000000000000e+00
1.630000000000000000e+02,1.000000000000000000e+00
1.640000000000000000e+02,1.000000000000000000e+00
1.650000000000000000e+02,1.000000000000000000e+00
1.660000000000000000e+02,1.000000000000000000e+00
1.670000000000000000e+02,1.000000000000000000e+00
1.680000000000000000e+02,1.000000000000000000e+00
1.690000000000000000e+02,1.000000000000000000e+00
1.700000000000000000e+02,1.000000000000000000e+00
1.710000000000000000e+02,1.000000000000000000e+00
1.720000000000000000e+02,1.000000000000000000e+00
1.730000000000000000e+02,1.000000000000000000e+00
1.740000000000000000e+02,1.000000000000000000e+00
1.750000000000000000e+02,1.000000000000000000e+00
1.760000000000000000e+02,1.000000000000000000e+00
1.770000000000000000e+02,1.000000000000000000e+00
1.780000000000000000e+02,1.000000000000000000e+00
1.790000000000000000e+02,1.000000000000000000e+00
1.800000000000000000e+02,1.000000000000000000e+00
1.810000000000000000e+02,1.000000000000000000e+00
1.820000000000000000e+02,1.000000000000000000e+00
1.830000000000000000e+02,1.000000000000000000e+00
1.840000000000000000e+02,1.000000000000000000e+00
1.850000000000000000e+02,1.000000000000000000e+00
1.860000000000000000e+02,1.000000000000000000e+00
1.870000000000000000e+02,1.000000000000000000e+00
1.880000000000000000e+02,1.000000000000000000e+00
1.890000000000000000e+02,1.000000000000000000e+00
1.900000000000000000e+02,1.000000000000000000e+00
1.910000000000000000e+02,1.000000000000000000e+00
1.920000000000000000e+02,1.000000000000000000e+00
1.930000000000000000e+02,1.000000000000000000e+00
1.940000000000000000e+02,1.000000000000000000e+00
1.950000000000000000e+02,1.000000000000000000e+00
1.960000000000000000e+02,1.000000000000000000e+00
1.970000000000000000e+02,1.000000000000000000e+00
1.980000000000000000e+02,1.000000000000000000e+00
1.990000000000000000e+02,1.000000000000000000e+00
2.000000000000000000e+02,1.000000000000000000e+00
2.010000000000000000e+02,1.000000000000000000e+00
2.020000000000000000e+02,1.000000000000000000e+00
2.030000000000000000e+02,1.000000000000000000e+00
2.040000000000000000e+02,9.999999400000000316e-01
2.050000000000000000e+02,9.999999400000000316e-01
2.060000000000000000e+02,9.999999400000000316e-01
2.070000000000000000e+02,9.999999400000000316e-01
2.080000000000000000e+02,9.999999400000000316e-01
2.090000000000000000e+02,9.999999400000000316e-01
2.100000000000000000e+02,9.999999400000000316e-01
2.110000000000000000e+02,9.999999400000000316e-01
2.120000000000000000e+02,9.999999400000000316e-01
2.130000000000000000e+02,9.999999400000000316e-01
2.140000000000000000e+02,9.999999400000000316e-01
2.150000000000000000e+02,9.999999400000000316e-01
2.160000000000000000e+02,9.999999400000000316e-01
2.170000000000000000e+02,9.999999400000000316e-01
2.180000000000000000e+02,9.999999400000000316e-01
2.190000000000000000e+02,9.999999400000000316e-01
2.200000000000000000e+02,9.999999400000000316e-01
2.210000000000000000e+02,9.999999400000000316e-01
2.220000000000000000e+02,9.999999400000000316e-01
2.230000000000000000e+02,9.999999400000000316e-01
2.240000000000000000e+02,9.999999400000000316e-01
2.250000000000000000e+02,9.999999400000000316e-01
2.260000000000000000e+02,9.999999400000000316e-01
2.270000000000000000e+02,9.999999400000000316e-01
2.280000000000000000e+02,9.999999400000000316e-01
2.290000000000000000e+02,9.999999400000000316e-01
2.300000000000000000e+02,9.999999400000000316e-01
2.310000000000000000e+02,9.999999400000000316e-01
2.320000000000000000e+02,9.999999400000000316e-01
2.330000000000000000e+02,9.999998799999999521e-01
2.340000000000000000e+02,9.999998799999999521e-01
2.350000000000000000e+02,9.999998799999999521e-01
2.360000000000000000e+02,9.999998799999999521e-01
2.370000000000000000e+02,9.999998799999999521e-01
2.380000000000000000e+02,9.999998799999999521e-01
2.390000000000000000e+02,9.999998799999999521e-01
2.400000000000000000e+02,9.999998799999999521e-01
2.410000000000000000e+02,9.999998799999999521e-01
2.420000000000000000e+02,9.999998799999999521e-01
2.430000000000000000e+02,9.999998799999999521e-01
2.440000000000000000e+02,9.999998799999999521e-01
2.450000000000000000e+02,9.999998799999999521e-01
2.460000000000000000e+02,9.999998799999999521e-01
2.470000000000000000e+02,9.999998799999999521e-01
2.480000000000000000e+02,9.999998199999999837e-01
2.490000000000000000e+02,9.999998199999999837e-01
2.500000000000000000e+02,9.999998199999999837e-01
2.510000000000000000e+02,9.999998199999999837e-01
2.520000000000000000e+02,9.999998199999999837e-01
2.530000000000000000e+02,9.999998199999999837e-01
2.540000000000000000e+02,9.999998199999999837e-01
2.550000000000000000e+02,9.999998199999999837e-01
2.560000000000000000e+02,9.999998199999999837e-01
2.570000000000000000e+02,9.999997600000000153e-01
2.580000000000000000e+02,9.999997600000000153e-01
2.590000000000000000e+02,9.999997600000000153e-01
2.600000000000000000e+02,9.999997600000000153e-01
2.610000000000000000e+02,9.999997600000000153e-01
2.620000000000000000e+02,9.999997600000000153e-01
2.630000000000000000e+02,9.999997600000000153e-01
2.640000000000000000e+02,9.999997600000000153e-01
2.650000000000000000e+02,9.999997000000000469e-01
2.660000000000000000e+02,9.999997000000000469e-01
2.670000000000000000e+02,9.999997000000000469e-01
2.680000000000000000e+02,9.999997000000000469e-01
2.690000000000000000e+02,9.999997000000000469e-01
2.700000000000000000e+02,9.999997000000000469e-01
2.710000000000000000e+02,9.999996399999999674e-01
2.720000000000000000e+02,9.999996399999999674e-01
2.730000000000000000e+02,9.999996399999999674e-01
2.740000000000000000e+02,9.999996399999999674e-01
2.750000000000000000e+02,9.999996399999999674e-01
2.760000000000000000e+02,9.999995799999999990e-01
2.770000000000000000e+02,9.999995799999999990e-01
2.780000000000000000e+02,9.999995799999999990e-01
2.790000000000000000e+02,9.999995799999999990e-01
2.800000000000000000e+02,9.999995799999999990e-01
2.810000000000000000e+02,9.999995200000000306e-01
2.820000000000000000e+02,9.999995200000000306e-01
2.830000000000000000e+02,9.999995200000000306e-01
2.840000000000000000e+02,9.999995200000000306e-01
2.850000000000000000e+02,9.999994599999999512e-01
2.860000000000000000e+02,9.999994599999999512e-01
2.870000000000000000e+02,9.999994599999999512e-01
2.880000000000000000e+02,9.999994599999999512e-01
2.890000000000000000e+02,9.999993999999999827e-01
2.900000000000000000e+02,9.999993999999999827e-01
2.910000000000000000e+02,9.999993999999999827e-01
2.920000000000000000e+02,9.999993400000000143e-01
2.930000000000000000e+02,9.999993400000000143e-01
2.940000000000000000e+02,9.999993400000000143e-01
2.950000000000000000e+02,9.999992800000000459e-01
2.960000000000000000e+02,9.999992800000000459e-01
2.970000000000000000e+02,9.999992800000000459e-01
2.980000000000000000e+02,9.999992300000000167e-01
2.990000000000000000e+02,9.999992300000000167e-01
3.000000000000000000e+02,9.999991700000000483e-01
3.010000000000000000e+02,9.999991700000000483e-01
3.020000000000000000e+02,9.999991700000000483e-01
3.030000000000000000e+02,9.999991099999999689e-01
3.040000000000000000e+02,9.999991099999999689e-01
3.050000000000000000e+02,9.999990500000000004e-01
3.060000000000000000e+02,9.999990500000000004e-01
3.070000000000000000e+02,9.999989900000000320e-01
3.080000000000000000e+02,9.999989900000000320e-01
3.090000000000000000e+02,9.999989299999999526e-01
3.100000000000000000e+02,9.999989299999999526e-01
3.110000000000000000e+02,9.999988699999999842e-01
3.120000000000000000e+02,9.999988699999999842e-01
3.130000000000000000e+02,9.999988100000000157e-01
3.140000000000000000e+02,9.999988100000000157e-01
3.150000000000000000e+02,9.999987500000000473e-01
3.160000000000000000e+02,9.999986899999999679e-01
3.170000000000000000e+02,9.999986899999999679e-01
3.180000000000000000e+02,9.999986299999999995e-01
3.190000000000000000e+02,9.999985700000000310e-01
3.200000000000000000e+02,9.999985700000000310e-01
3.210000000000000000e+02,9.999985099999999516e-01
3.220000000000000000e+02,9.999984499999999832e-01
3.230000000000000000e+02,9.999984499999999832e-01
3.240000000000000000e+02,9.999983900000000148e-01
3.250000000000000000e+02,9.999983300000000463e-01
3.260000000000000000e+02,9.999982699999999669e-01
3.270000000000000000e+02,9.999982099999999985e-01
3.280000000000000000e+02,9.999982099999999985e-01
3.290000000000000000e+02,9.999981500000000301e-01
3.300000000000000000e+02,9.999980899999999506e-01
3.310000000000000000e+02,9.999980299999999822e-01
3.320000000000000000e+02,9.999979700000000138e-01
3.330000000000000000e+02,9.999979100000000454e-01
3.340000000000000000e+02,9.999978499999999659e-01
3.350000000000000000e+02,9.999977899999999975e-01
3.360000000000000000e+02,9.999977399999999683e-01
3.370000000000000000e+02,9.999976799999999999e-01
3.380000000000000000e+02,9.999976200000000315e-01
3.390000000000000000e+02,9.999975599999999520e-01
3.400000000000000000e+02,9.999974999999999836e-01
3.410000000000000000e+02,9.999974400000000152e-01
3.420000000000000000e+02,9.999973800000000468e-01
3.430000000000000000e+02,9.999972599999999989e-01
3.440000000000000000e+02,9.999972000000000305e-01
3.450000000000000000e+02,9.999971399999999511e-01
3.460000000000000000e+02,9.999970799999999826e-01
3.470000000000000000e+02,9.999969600000000458e-01
3.480000000000000000e+02,9.999968999999999664e-01
3.490000000000000000e+02,9.999968399999999979e-01
3.500000000000000000e+02,9.999967199999999501e-01
3.510000000000000000e+02,9.999966599999999817e-01
3.520000000000000000e+02,9.999965400000000448e-01
3.530000000000000000e+02,9.999964799999999654e-01
3.540000000000000000e+02,9.999963600000000286e-01
3.550000000000000000e+02,9.999962999999999491e-01
3.560000000000000000e+02,9.999961899999999515e-01
3.570000000000000000e+02,9.999960700000000147e-01
3.580000000000000000e+02,9.999959499999999668e-01
3.590000000000000000e+02,9.999958899999999984e-01
3.600000000000000000e+02,9.999957699999999505e-01
3.610000000000000000e+02,9.999956500000000137e-01
3.620000000000000000e+02,9.999955299999999658e-01
3.630000000000000000e+02,9.999954100000000290e-01
3.640000000000000000e+02,9.999952899999999811e-01
3.650000000000000000e+02,9.999951700000000443e-01
3.660000000000000000e+02,9.999950499999999964e-01
3.670000000000000000e+02,9.999949299999999486e-01
3.680000000000000000e+02,9.999948100000000117e-01
3.690000000000000000e+02,9.999947000000000141e-01
3.700000000000000000e+02,9.999945799999999663e-01
3.710000000000000000e+02,9.999943999999999500e-01
3.720000000000000000e+02,9.999942800000000132e-01
3.730000000000000000e+02,9.999940999999999969e-01
3.740000000000000000e+02,9.999939799999999490e-01
3.750000000000000000e+02,9.999938000000000438e-01
3.760000000000000000e+02,9.999936799999999959e-01
3.770000000000000000e+02,9.999934999999999796e-01
3.780000000000000000e+02,9.999933800000000428e-01
3.790000000000000000e+02,9.999932099999999657e-01
3.800000000000000000e+02,9.999930299999999495e-01
3.810000000000000000e+02,9.999928500000000442e-01
3.820000000000000000e+02,9.999926700000000279e-01
3.830000000000000000e+02,9.999924900000000116e-01
3.840000000000000000e+02,9.999923099999999954e-01
3.850000000000000000e+02,9.999921299999999791e-01
3.860000000000000000e+02,9.999919499999999628e-01
3.870000000000000000e+02,9.999917099999999781e-01
3.880000000000000000e+02,9.999915400000000121e-01
3.890000000000000000e+02,9.999913599999999958e-01
3.900000000000000000e+02,9.999911200000000111e-01
3.910000000000000000e+02,9.999909399999999948e-01
3.920000000000000000e+02,9.999907000000000101e-01
3.930000000000000000e+02,9.999904600000000254e-01
3.940000000000000000e+02,9.999902200000000407e-01
3.950000000000000000e+02,9.999899899999999953e-01
3.960000000000000000e+02,9.999897500000000106e-01
3.970000000000000000e+02,9.999895100000000259e-01
3.980000000000000000e+02,9.999892700000000412e-01
3.990000000000000000e+02,9.999890299999999455e-01
4.000000000000000000e+02,9.999887899999999608e-01
4.010000000000000000e+02,9.999884999999999469e-01
4.020000000000000000e+02,9.999882599999999622e-01
4.030000000000000000e+02,9.999879600000000091e-01
4.040000000000000000e+02,9.999876599999999449e-01
4.050000000000000000e+02,9.999874199999999602e-01
4.060000000000000000e+02,9.999871299999999463e-01
4.070000000000000000e+02,9.999868299999999932e-01
4.080000000000000000e+02,9.999865300000000401e-01
4.090000000000000000e+02,9.999861700000000075e-01
4.100000000000000000e+02,9.999858700000000544e-01
4.110000000000000000e+02,9.999855800000000405e-01
4.120000000000000000e+02,9.999852200000000080e-01
4.130000000000000000e+02,9.999848599999999754e-01
4.140000000000000000e+02,9.999845600000000223e-01
4.150000000000000000e+02,9.999841999999999897e-01
4.160000000000000000e+02,9.999838500000000074e-01
4.170000000000000000e+02,9.999834899999999749e-01
4.180000000000000000e+02,9.999830699999999739e-01
4.190000000000000000e+02,9.999827100000000524e-01
4.200000000000000000e+02,9.999822999999999906e-01
4.210000000000000000e+02,9.999819399999999581e-01
4.220000000000000000e+02,9.999815199999999571e-01
4.230000000000000000e+02,9.999811100000000064e-01
4.240000000000000000e+02,9.999806900000000054e-01
4.250000000000000000e+02,9.999802700000000044e-01
4.260000000000000000e+02,9.999798500000000034e-01
4.270000000000000000e+02,9.999793799999999733e-01
4.280000000000000000e+02,9.999789599999999723e-01
4.290000000000000000e+02,9.999784800000000029e-01
4.300000000000000000e+02,9.999780099999999727e-01
4.310000000000000000e+02,9.999775300000000033e-01
4.320000000000000000e+02,9.999770500000000339e-01
4.330000000000000000e+02,9.999765200000000354e-01
4.340000000000000000e+02,9.999760399999999549e-01
4.350000000000000000e+02,9.999755000000000171e-01
4.360000000000000000e+02,9.999749700000000185e-01
4.370000000000000000e+02,9.999744299999999697e-01
4.380000000000000000e+02,9.999738900000000319e-01
4.390000000000000000e+02,9.999732999999999539e-01
4.400000000000000000e+02,9.999727600000000161e-01
4.410000000000000000e+02,9.999721599999999988e-01
4.420000000000000000e+02,9.999715700000000318e-01
4.430000000000000000e+02,9.999709700000000145e-01
4.440000000000000000e+02,9.999703800000000475e-01
4.450000000000000000e+02,9.999697199999999508e-01
4.460000000000000000e+02,9.999690700000000154e-01
4.470000000000000000e+02,9.999684100000000297e-01
4.480000000000000000e+02,9.999677500000000441e-01
4.490000000000000000e+02,9.999670999999999976e-01
4.500000000000000000e+02,9.999663800000000435e-01
4.510000000000000000e+02,9.999657299999999971e-01
4.520000000000000000e+02,9.999650100000000430e-01
4.530000000000000000e+02,9.999642399999999487e-01
4.540000000000000000e+02,9.999635199999999946e-01
4.550000000000000000e+02,9.999627500000000113e-01
4.560000000000000000e+02,9.999619699999999778e-01
4.570000000000000000e+02,9.999611999999999945e-01
4.580000000000000000e+02,9.999604199999999610e-01
4.590000000000000000e+02,9.999595900000000093e-01
4.600000000000000000e+02,9.999588099999999757e-01
4.610000000000000000e+02,9.999579199999999446e-01
4.620000000000000000e+02,9.999570800000000537e-01
4.630000000000000000e+02,9.999561900000000225e-01
4.640000000000000000e+02,9.999553599999999598e-01
4.650000000000000000e+02,9.999544000000000210e-01
4.660000000000000000e+02,9.999535099999999899e-01
4.670000000000000000e+02,9.999525500000000511e-01
4.680000000000000000e+02,9.999516000000000515e-01
4.690000000000000000e+02,9.999506500000000520e-01
4.700000000000000000e+02,9.999496900000000021e-01
4.710000000000000000e+02,9.999486800000000342e-01
4.720000000000000000e+02,9.999476699999999552e-01
4.730000000000000000e+02,9.999465899999999685e-01
4.740000000000000000e+02,9.999455200000000321e-01
4.750000000000000000e+02,9.999444499999999847e-01
4.760000000000000000e+02,9.999433800000000483e-01
4.770000000000000000e+02,9.999422399999999822e-01
4.780000000000000000e+02,9.999411099999999664e-01
4.790000000000000000e+02,9.999399799999999505e-01
4.800000000000000000e+02,9.999387899999999663e-01
4.810000000000000000e+02,9.999375900000000428e-01
4.820000000000000000e+02,9.999363999999999475e-01
4.830000000000000000e+02,9.999351499999999948e-01
4.840000000000000000e+02,9.999339000000000421e-01
4.850000000000000000e+02,9.999326499999999784e-01
4.860000000000000000e+02,9.999313399999999463e-01
4.870000000000000000e+02,9.999300199999999750e-01
4.880000000000000000e+02,9.999287100000000539e-01
4.890000000000000000e+02,9.999273400000000533e-01
4.900000000000000000e+02,9.999259099999999734e-01
4.910000000000000000e+02,9.999245399999999728e-01
4.920000000000000000e+02,9.999231100000000039e-01
4.930000000000000000e+02,9.999216199999999555e-01
4.940000000000000000e+02,9.999201300000000181e-01
4.950000000000000000e+02,9.999186399999999697e-01
4.960000000000000000e+02,9.999170899999999529e-01
4.970000000000000000e+02,9.999155400000000471e-01
4.980000000000000000e+02,9.999139900000000303e-01
4.990000000000000000e+02,9.999123800000000450e-01
5.000000000000000000e+02,9.999107099999999804e-01
5.010000000000000000e+02,9.999090999999999951e-01
5.020000000000000000e+02,9.999073699999999620e-01
5.030000000000000000e+02,9.999056499999999792e-01
5.040000000000000000e+02,9.999039199999999461e-01
5.050000000000000000e+02,9.999021900000000240e-01
5.060000000000000000e+02,9.999003400000000541e-01
5.070000000000000000e+02,9.998985500000000526e-01
5.080000000000000000e+02,9.998966500000000535e-01
5.090000000000000000e+02,9.998947999999999725e-01
5.100000000000000000e+02,9.998928900000000342e-01
5.110000000000000000e+02,9.998909200000000164e-01
5.120000000000000000e+02,9.998889600000000488e-01
5.130000000000000000e+02,9.998869299999999516e-01
5.140000000000000000e+02,9.998848999999999654e-01
5.150000000000000000e+02,9.998828199999999500e-01
5.160000000000000000e+02,9.998806700000000269e-01
5.170000000000000000e+02,9.998785900000000115e-01
5.180000000000000000e+02,9.998763800000000090e-01
5.190000000000000000e+02,9.998741700000000066e-01
5.200000000000000000e+02,9.998719099999999749e-01
5.210000000000000000e+02,9.998696400000000040e-01
5.220000000000000000e+02,9.998673200000000039e-01
5.230000000000000000e+02,9.998650000000000038e-01
5.240000000000000000e+02,9.998626099999999850e-01
5.250000000000000000e+02,9.998601700000000481e-01
5.260000000000000000e+02,9.998577199999999499e-01
5.270000000000000000e+02,9.998552200000000445e-01
5.280000000000000000e+02,9.998527200000000281e-01
5.290000000000000000e+02,9.998501499999999931e-01
5.300000000000000000e+02,9.998475300000000399e-01
5.310000000000000000e+02,9.998448500000000072e-01
5.320000000000000000e+02,9.998421699999999746e-01
5.330000000000000000e+02,9.998394299999999735e-01
5.340000000000000000e+02,9.998366800000000332e-01
5.350000000000000000e+02,9.998338799999999527e-01
5.360000000000000000e+02,9.998310200000000147e-01
5.370000000000000000e+02,9.998280999999999974e-01
5.380000000000000000e+02,9.998251799999999800e-01
5.390000000000000000e+02,9.998221999999999943e-01
5.400000000000000000e+02,9.998191600000000401e-01
5.410000000000000000e+02,9.998160600000000064e-01
5.420000000000000000e+02,9.998129599999999728e-01
5.430000000000000000e+02,9.998097999999999708e-01
5.440000000000000000e+02,9.998065800000000003e-01
5.450000000000000000e+02,9.998032999999999504e-01
5.460000000000000000e+02,9.998000299999999507e-01
5.470000000000000000e+02,9.997966900000000434e-01
5.480000000000000000e+02,9.997932899999999456e-01
5.490000000000000000e+02,9.997898299999999905e-01
5.500000000000000000e+02,9.997863200000000061e-01
5.510000000000000000e+02,9.997827999999999715e-01
5.520000000000000000e+02,9.997791600000000001e-01
5.530000000000000000e+02,9.997755299999999679e-01
5.540000000000000000e+02,9.997718300000000280e-01
5.550000000000000000e+02,9.997680799999999479e-01
5.560000000000000000e+02,9.997642599999999602e-01
5.570000000000000000e+02,9.997603900000000543e-01
5.580000000000000000e+02,9.997564599999999579e-01
5.590000000000000000e+02,9.997524599999999539e-01
5.600000000000000000e+02,9.997484700000000002e-01
5.610000000000000000e+02,9.997443599999999986e-01
5.620000000000000000e+02,9.997402399999999467e-01
5.630000000000000000e+02,9.997360100000000083e-01
5.640000000000000000e+02,9.997317799999999588e-01
5.650000000000000000e+02,9.997274900000000519e-01
5.660000000000000000e+02,9.997230799999999862e-01
5.670000000000000000e+02,9.997186700000000315e-01
5.680000000000000000e+02,9.997141400000000289e-01
5.690000000000000000e+02,9.997096100000000263e-01
5.700000000000000000e+02,9.997049599999999758e-01
5.710000000000000000e+02,9.997003100000000364e-01
5.720000000000000000e+02,9.996955400000000491e-01
5.730000000000000000e+02,9.996907099999999824e-01
5.740000000000000000e+02,9.996858199999999472e-01
5.750000000000000000e+02,9.996808799999999939e-01
5.760000000000000000e+02,9.996758700000000220e-01
5.770000000000000000e+02,9.996707999999999705e-01
5.780000000000000000e+02,9.996656800000000009e-01
5.790000000000000000e+02,9.996604300000000443e-01
5.800000000000000000e+02,9.996551900000000268e-01
5.810000000000000000e+02,9.996498200000000223e-01
5.820000000000000000e+02,9.996443999999999885e-01
5.830000000000000000e+02,9.996389199999999864e-01
5.840000000000000000e+02,9.996333099999999972e-01
5.850000000000000000e+02,9.996277099999999471e-01
5.860000000000000000e+02,9.996219899999999603e-01
5.870000000000000000e+02,9.996162100000000050e-01
5.880000000000000000e+02,9.996102999999999517e-01
5.890000000000000000e+02,9.996043999999999485e-01
5.900000000000000000e+02,9.995983800000000086e-01
5.910000000000000000e+02,9.995922400000000207e-01
5.920000000000000000e+02,9.995861099999999722e-01
5.930000000000000000e+02,9.995798500000000475e-01
5.940000000000000000e+02,9.995735300000000434e-01
5.950000000000000000e+02,9.995670899999999914e-01
5.960000000000000000e+02,9.995605899999999711e-01
5.970000000000000000e+02,9.995540400000000325e-01
5.980000000000000000e+02,9.995473599999999958e-01
5.990000000000000000e+02,9.995406300000000410e-01