# Time [s], Mass [Kg]
1.000000000000000000e+00,1.000000000000000000e+00
2.000000000000000000e+00,1.000000000000000000e+00
3.000000000000000000e+00,1.000000000000000000e+00
4.000000000000000000e+00,1.000000000000000000e+00
5.000000000000000000e+00,1.000000000000000000e+00
6.000000000000000000e+00,1.000000000000000000e+00
7.000000000000000000e+00,1.000000000000000000e+00
8.000000000000000000e+00,1.000000000000000000e+00
9.000000000000000000e+00,1.000000000000000000e+00
1.000000000000000000e+01,1.000000000000000000e+00
1.100000000000000000e+01,1.000000000000000000e+00
1.200000000000000000e+01,1.000000000000000000e+00
1.300000000000000000e+01,1.000000000000000000e+00
1.400000000000000000e+01,1.000000000000000000e+00
1.500000000000000000e+01,1.000000000000000000e+00
1.600000000000000000e+01,1.000000000000000000e+00
1.700000000000000000e+01,1.000000000000000000e+00
1.800000000000000000e+01,1.000000000000000000e+00
1.900000000000000000e+01,1.000000000000000000e+00
2.000000000000000000e+01,1.000000000000000000e+00
2.100000000000000000e+01,1.000000000000000000e+00
2.200000000000000000e+01,1.000000000000000000e+00
2.300000000000000000e+01,1.000000000000000000e+00
2.400000000000000000e+01,1.000000000000000000e+00
2.500000000000000000e+01,1.000000000000000000e+00
2.600000000000000000e+01,1.000000000000000000e+00
2.700000000000000000e+01,1.000000000000000000e+00
2.800000000000000000e+01,1.000000000000000000e+00
2.900000000000000000e+01,1.000000000000000000e+00
3.000000000000000000e+01,1.000000000000000000e+00
3.100000000000000000e+01,1.000000000000000000e+00
3.200000000000000000e+01,1.000000000000000000e+00
3.300000000000000000e+01,1.000000000000000000e+00
3.400000000000000000e+01,1.000000000000000000e+00
3.500000000000000000e+01,1.000000000000000000e+00
3.600000000000000000e+01,1.000000000000000000e+00
3.700000000000000000e+01,1.000000000000000000e+00
3.800000000000000000e+01,1.000000000000000000e+00
3.900000000000000000e+01,1.000000000000000000e+00
4.000000000000000000e+01,1.000000000000000000e+00
4.100000000000000000e+01,1.000000000000000000e+00
4.200000000000000000e+01,1.000000000000000000e+00
4.300000000000000000e+01,1.000000000000000000e+00
4.400000000000000000e+01,1.000000000000000000e+00
4.500000000000000000e+01,1.000000000000000000e+00
4.600000000000000000e+01,1.000000000000000000e+00
4.700000000000000000e+01,1.000000000000000000e+00
4.800000000000000000e+01,1.000000000000000000e+00
4.900000000000000000e+01,1.000000000000000000e+00
5.000000000000000000e+01,1.000000000000000000e+00
5.100000000000000000e+01,1.000000000000000000e+00
5.200000000000000000e+01,1.000000000000000000e+00
5.300000000000000000e+01,1.000000000000000000e+00
5.400000000000000000e+01,1.000000000000000000e+00
5.500000000000000000e+01,1.000000000000000000e+00
5.600000000000000000e+01,1.000000000000000000e+00
5.700000000000000000e+01,1.000000000000000000e+00
5.800000000000000000e+01,1.000000000000000000e+00
5.900000000000000000e+01,1.000000000000000000e+00
6.000000000000000000e+01,1.000000000000000000e+00
6.100000000000000000e+01,1.000000000000000000e+00
6.200000000000000000e+01,1.000000000000000000e+00
6.300000000000000000e+01,1.000000000000000000e+00
6.400000000000000000e+01,1.000000000000000000e+00
6.500000000000000000e+01,1.000000000000000000e+00
6.600000000000000000e+01,1.000000000000000000e+00
6.700000000000000000e+01,1.000000000000000000e+00
6.800000000000000000e+01,1.000000000000000000e+00
6.900000000000000000e+01,1.000000000000000000e+00
7.000000000000000000e+01,1.000000000000000000e+00
7.100000000000000000e+01,1.000000000000000000e+00
7.200000000000000000e+01,1.000000000000000000e+00
7.300000000000000000e+01,1.000000000000000000e+00
7.400000000000000000e+01,1.000000000000000000e+00
7.500000000000000000e+01,1.000000000000000000e+00
7.600000000000000000e+01,1.000000000000000000e+00
7.700000000000000000e+01,1.000000000000000000e+00
7.800000000000000000e+01,1.000000000000000000e+00
7.900000000000000000e+01,1.000000000000000000e+00
8.000000000000000000e+01,1.000000000000000000e+00
8.100000000000000000e+01,1.000000000000000000e+00
8.200000000000000000e+01,1.000000000000000000e+00
8.300000000000000000e+01,1.000000000000000000e+00
8.400000000000000000e+01,1.000000000000000000e+00
8.500000000000000000e+01,1.000000000000000000e+00
8.600000000000000000e+01,1.000000000000000000e+00
8.700000000000000000e+01,1.000000000000000000e+00
8.800000000000000000e+01,1.000000000000000000e+00
8.900000000000000000e+01,1.000000000000000000e+00
9.000000000000000000e+01,1.000000000000000000e+00
9.100000000000000000e+01,1.000000000000000000e+00
9.200000000000000000e+01,1.000000000000000000e+00
9.300000000000000000e+01,1.000000000000000000e+00
9.400000000000000000e+01,1.000000000000000000e+00
9.500000000000000000e+01,1.000000000000000000e+00
9.600000000000000000e+01,1.000000000000000000e+00
9.700000000000000000e+01,1.000000000000000000e+00
9.800000000000000000e+01,1.000000000000000000e+00
9.900000000000000000e+01,1.000000000000000000e+00
1.000000000000000000e+02,1.000000000000000000e+00
1.010000000000000000e+02,1.000000000000000000e+00
1.020000000000000000e+02,1.000000000000000000e+00
1.030000000000000000e+02,1.000000000000000000e+00
1.040000000000000000e+02,1.000000000000000000e+00
1.050000000000000000e+02,1.000000000000000000e+00
1.060000000000000000e+02,1.000000000000000000e+00
1.070000000000000000e+02,1.000000000000000000e+00
1.080000000000000000e+02,1.000000000000000000e+00
1.090000000000000000e+02,1.000000000000000000e+00
1.100000000000000000e+02,1.000000000000000000e+00
1.110000000000000000e+02,1.000000000000000000e+00
1.120000000000000000e+02,1.000000000000000000e+00
1.130000000000000000e+02,1.000000000000000000e+00
1.140000000000000000e+02,1.000000000000000000e+00
1.150000000000000000e+02,1.000000000000000000e+00
1.160000000000000000e+02,1.000000000000000000e+00
1.170000000000000000e+02,1.000000000000000000e+00
1.180000000000000000e+02,1.000000000000000000e+00
1.190000000000000000e+02,1.000000000000000000e+00
1.200000000000000000e+02,1.000000000000000000e+00
1.210000000000000000e+02,1.000000000000000000e+00
1.220000000000000000e+02,1.000000000000000000e+00
1.230000000000000000e+02,1.000000000000000000e+00
1.240000000000000000e+02,1.000000000000000000e+00
1.250000000000000000e+02,1.000000000000000000e+00
1.260000000000000000e+02,1.000000000000000000e+00
1.270000000000000000e+02,1.000000000000000000e+00
1.280000000000000000e+02,1.000000000000000000e+00
1.290000000000000000e+02,1.000000000000000000e+00
1.300000000000000000e+02,1.000000000000000000e+00
1.310000000000000000e+02,1.000000000000000000e+00
1.320000000000000000e+02,1.000000000000000000e+00
1.330000000000000000e+02,1.000000000000000000e+00
1.340000000000000000e+02,1.000000000000000000e+00
1.350000000000000000e+02,1.000000000000000000e+00
1.360000000000000000e+02,1.000000000000000000e+00
1.370000000000000000e+02,1.000000000000000000e+00
1.380000000000000000e+02,1.000000000000000000e+00
1.390000000000000000e+02,1.000000000000000000e+00
1.400000000000000000e+02,1.000000000000000000e+00
1.410000000000000000e+02,1.000000000000000000e+00
1.420000000000000000e+02,1.000000000000000000e+00
1.430000000000000000e+02,1.000000000000000000e+00
1.440000000000000000e+02,1.000000000000000000e+00
1.450000000000000000e+02,1.000000000000000000e+00
1.460000000000000000e+02,1.000000000000000000e+00
1.470000000000000000e+02,1.000000000000000000e+00
1.480000000000000000e+02,1.000000000000000000e+00
1.490000000000000000e+02,1.000000000000000000e+00
1.500000000000000000e+02,1.000000000000000000e+00
1.510000000000000000e+02,1.000000000000000000e+00
1.520000000000000000e+02,1.000000000000000000e+00
1.530000000000000000e+02,1.000000000000000000e+00
1.540000000000000000e+02,1.000000000000000000e+00
1.550000000000000000e+02,1.000000000000000000e+00
1.560000000000000000e+02,1.000000000000000000e+00
1.570000000000000000e+02,1.000000000000000000e+00
1.580000000000000000e+02,1.000000000000000000e+00
1.590000000000000000e+02,1.000000000000000000e+00
1.600000000000000000e+02,1.000000000000000000e+00
1.610000000000000000e+02,1.000000000000000000e+00
1.620000000000000000e+02,1.000000000000000000e+00
1.630000000000000000e+02,1.000000000000000000e+00
1.640000000000000000e+02,1.000000000000000000e+00
1.650000000000000000e+02,1.000000000000000000e+00
1.660000000000000000e+02,1.000000000000000000e+00
1.670000000000000000e+02,1.000000000000000000e+00
1.680000000000000000e+02,1.000000000000000000e+00
1.690000000000000000e+02,1.000000000000000000e+00
1.700000000000000000e+02,1.000000000000000000e+00
1.710000000000000000e+02,1.000000000000000000e+00
1.720000000000000000e+02,1.000000000000000000e+00
1.730000000000000000e+02,1.000000000000000000e+00
1.740000000000000000e+02,1.000000000000000000e+00
1.750000000000000000e+02,1.000000000000000000e+00
1.760000000000000000e+02,1.000000000000000000e+00
1.770000000000000000e+02,1.000000000000000000e+00
1.780000000000000000e+02,1.000000000000000000e+00
1.790000000000000000e+02,1.000000000000000000e+00
1.800000000000000000e+02,1.000000000000000000e+00
1.810000000000000000e+02,1.000000000000000000e+00
1.820000000000000000e+02,1.000000000000000000e+00
1.830000000000000000e+02,1.000000000000000000e+00
1.840000000000000000e+02,1.000000000000000000e+00
1.850000000000000000e+02,1.000000000000000000e+00
1.860000000000000000e+02,9.999999400000000316e-01
1.870000000000000000e+02,9.999999400000000316e-01
1.880000000000000000e+02,9.999999400000000316e-01
1.890000000000000000e+02,9.999999400000000316e-01
1.900000000000000000e+02,9.999999400000000316e-01
1.910000000000000000e+02,9.999999400000000316e-01
1.920000000000000000e+02,9.999999400000000316e-01
1.930000000000000000e+02,9.999999400000000316e-01
1.940000000000000000e+02,9.999999400000000316e-01
1.950000000000000000e+02,9.999999400000000316e-01
1.960000000000000000e+02,9.999999400000000316e-01
1.970000000000000000e+02,9.999999400000000316e-01
1.980000000000000000e+02,9.999999400000000316e-01
1.990000000000000000e+02,9.999999400000000316e-01
2.000000000000000000e+02,9.999999400000000316e-01
2.010000000000000000e+02,9.999999400000000316e-01
2.020000000000000000e+02,9.999999400000000316e-01
2.030000000000000000e+02,9.999999400000000316e-01
2.040000000000000000e+02,9.999999400000000316e-01
2.050000000000000000e+02,9.999999400000000316e-01
2.060000000000000000e+02,9.999999400000000316e-01
2.070000000000000000e+02,9.999999400000000316e-01
2.080000000000000000e+02,9.999999400000000316e-01
2.090000000000000000e+02,9.999999400000000316e-01
2.100000000000000000e+02,9.999999400000000316e-01
2.110000000000000000e+02,9.999999400000000316e-01
2.120000000000000000e+02,9.999999400000000316e-01
2.130000000000000000e+02,9.999999400000000316e-01
2.140000000000000000e+02,9.999999400000000316e-01
2.150000000000000000e+02,9.999999400000000316e-01
2.160000000000000000e+02,9.999998799999999521e-01
2.170000000000000000e+02,9.999998799999999521e-01
2.180000000000000000e+02,9.999998799999999521e-01
2.190000000000000000e+02,9.999998799999999521e-01
2.200000000000000000e+02,9.999998799999999521e-01
2.210000000000000000e+02,9.999998799999999521e-01
2.220000000000000000e+02,9.999998799999999521e-01
2.230000000000000000e+02,9.999998799999999521e-01
2.240000000000000000e+02,9.999998799999999521e-01
2.250000000000000000e+02,9.999998799999999521e-01
2.260000000000000000e+02,9.999998799999999521e-01
2.270000000000000000e+02,9.999998799999999521e-01
2.280000000000000000e+02,9.999998799999999521e-01
2.290000000000000000e+02,9.999998799999999521e-01
2.300000000000000000e+02,9.999998799999999521e-01
2.310000000000000000e+02,9.999998799999999521e-01
2.320000000000000000e+02,9.999998199999999837e-01
2.330000000000000000e+02,9.999998199999999837e-01
2.340000000000000000e+02,9.999998199999999837e-01
2.350000000000000000e+02,9.999998199999999837e-01
2.360000000000000000e+02,9.999998199999999837e-01
2.370000000000000000e+02,9.999998199999999837e-01
2.380000000000000000e+02,9.999998199999999837e-01
2.390000000000000000e+02,9.999998199999999837e-01
2.400000000000000000e+02,9.999998199999999837e-01
2.410000000000000000e+02,9.999998199999999837e-01
2.420000000000000000e+02,9.999997600000000153e-01
2.430000000000000000e+02,9.999997600000000153e-01
2.440000000000000000e+02,9.999997600000000153e-01
2.450000000000000000e+02,9.999997600000000153e-01
2.460000000000000000e+02,9.999997600000000153e-01
2.470000000000000000e+02,9.999997600000000153e-01
2.480000000000000000e+02,9.999997600000000153e-01
2.490000000000000000e+02,9.999997600000000153e-01
2.500000000000000000e+02,9.999997000000000469e-01
2.510000000000000000e+02,9.999997000000000469e-01
2.520000000000000000e+02,9.999997000000000469e-01
2.530000000000000000e+02,9.999997000000000469e-01
2.540000000000000000e+02,9.999997000000000469e-01
2.550000000000000000e+02,9.999997000000000469e-01
2.560000000000000000e+02,9.999997000000000469e-01
2.570000000000000000e+02,9.999996399999999674e-01
2.580000000000000000e+02,9.999996399999999674e-01
2.590000000000000000e+02,9.999996399999999674e-01
2.600000000000000000e+02,9.999996399999999674e-01
2.610000000000000000e+02,9.999996399999999674e-01
2.620000000000000000e+02,9.999996399999999674e-01
2.630000000000000000e+02,9.999995799999999990e-01
2.640000000000000000e+02,9.999995799999999990e-01
2.650000000000000000e+02,9.999995799999999990e-01
2.660000000000000000e+02,9.999995799999999990e-01
2.670000000000000000e+02,9.999995200000000306e-01
2.680000000000000000e+02,9.999995200000000306e-01
2.690000000000000000e+02,9.999995200000000306e-01
2.700000000000000000e+02,9.999995200000000306e-01
2.710000000000000000e+02,9.999995200000000306e-01
2.720000000000000000e+02,9.999994599999999512e-01
2.730000000000000000e+02,9.999994599999999512e-01
2.740000000000000000e+02,9.999994599999999512e-01
2.750000000000000000e+02,9.999994599999999512e-01
2.760000000000000000e+02,9.999993999999999827e-01
2.770000000000000000e+02,9.999993999999999827e-01
2.780000000000000000e+02,9.999993999999999827e-01
2.790000000000000000e+02,9.999993400000000143e-01
2.800000000000000000e+02,9.999993400000000143e-01
2.810000000000000000e+02,9.999993400000000143e-01
2.820000000000000000e+02,9.999993400000000143e-01
2.830000000000000000e+02,9.999992800000000459e-01
2.840000000000000000e+02,9.999992800000000459e-01
2.850000000000000000e+02,9.999992800000000459e-01
2.860000000000000000e+02,9.999992300000000167e-01
2.870000000000000000e+02,9.999992300000000167e-01
2.880000000000000000e+02,9.999991700000000483e-01
2.890000000000000000e+02,9.999991700000000483e-01
2.900000000000000000e+02,9.999991700000000483e-01
2.910000000000000000e+02,9.999991099999999689e-01
2.920000000000000000e+02,9.999991099999999689e-01
2.930000000000000000e+02,9.999990500000000004e-01
2.940000000000000000e+02,9.999990500000000004e-01
2.950000000000000000e+02,9.999990500000000004e-01
2.960000000000000000e+02,9.999989900000000320e-01
2.970000000000000000e+02,9.999989900000000320e-01
2.980000000000000000e+02,9.999989299999999526e-01
2.990000000000000000e+02,9.999989299999999526e-01
3.000000000000000000e+02,9.999988699999999842e-01
3.010000000000000000e+02,9.999988699999999842e-01
3.020000000000000000e+02,9.999988100000000157e-01
3.030000000000000000e+02,9.999988100000000157e-01
3.040000000000000000e+02,9.999987500000000473e-01
3.050000000000000000e+02,9.999987500000000473e-01
3.060000000000000000e+02,9.999986899999999679e-01
3.070000000000000000e+02,9.999986899999999679e-01
3.080000000000000000e+02,9.999986299999999995e-01
3.090000000000000000e+02,9.999985700000000310e-01
3.100000000000000000e+02,9.999985700000000310e-01
3.110000000000000000e+02,9.999985099999999516e-01
3.120000000000000000e+02,9.999984499999999832e-01
3.130000000000000000e+02,9.999984499999999832e-01
3.140000000000000000e+02,9.999983900000000148e-01
3.150000000000000000e+02,9.999983300000000463e-01
3.160000000000000000e+02,9.999983300000000463e-01
3.170000000000000000e+02,9.999982699999999669e-01
3.180000000000000000e+02,9.999982099999999985e-01
3.190000000000000000e+02,9.999981500000000301e-01
3.200000000000000000e+02,9.999981500000000301e-01
3.210000000000000000e+02,9.999980899999999506e-01
3.220000000000000000e+02,9.999980299999999822e-01
3.230000000000000000e+02,9.999979700000000138e-01
3.240000000000000000e+02,9.999979100000000454e-01
3.250000000000000000e+02,9.999979100000000454e-01
3.260000000000000000e+02,9.999978499999999659e-01
3.270000000000000000e+02,9.999977899999999975e-01
3.280000000000000000e+02,9.999977399999999683e-01
3.290000000000000000e+02,9.999976799999999999e-01
3.300000000000000000e+02,9.999976200000000315e-01
3.310000000000000000e+02,9.999975599999999520e-01
3.320000000000000000e+02,9.999974999999999836e-01
3.330000000000000000e+02,9.999974400000000152e-01
3.340000000000000000e+02,9.999973800000000468e-01
3.350000000000000000e+02,9.999973199999999673e-01
3.360000000000000000e+02,9.999972599999999989e-01
3.370000000000000000e+02,9.999971399999999511e-01
3.380000000000000000e+02,9.999970799999999826e-01
3.390000000000000000e+02,9.999970200000000142e-01
3.400000000000000000e+02,9.999969600000000458e-01
3.410000000000000000e+02,9.999968999999999664e-01
3.420000000000000000e+02,9.999967800000000295e-01
3.430000000000000000e+02,9.999967199999999501e-01
3.440000000000000000e+02,9.999966599999999817e-01
3.450000000000000000e+02,9.999966000000000133e-01
3.460000000000000000e+02,9.999964799999999654e-01
3.470000000000000000e+02,9.999964199999999970e-01
3.480000000000000000e+02,9.999962999999999491e-01
3.490000000000000000e+02,9.999962399999999807e-01
3.500000000000000000e+02,9.999961299999999831e-01
3.510000000000000000e+02,9.999960700000000147e-01
3.520000000000000000e+02,9.999959499999999668e-01
3.530000000000000000e+02,9.999958899999999984e-01
3.540000000000000000e+02,9.999957699999999505e-01
3.550000000000000000e+02,9.999957099999999821e-01
3.560000000000000000e+02,9.999955900000000453e-01
3.570000000000000000e+02,9.999954699999999974e-01
3.580000000000000000e+02,9.999953499999999496e-01
3.590000000000000000e+02,9.999952899999999811e-01
3.600000000000000000e+02,9.999951700000000443e-01
3.610000000000000000e+02,9.999950499999999964e-01
3.620000000000000000e+02,9.999949299999999486e-01
3.630000000000000000e+02,9.999948100000000117e-01
3.640000000000000000e+02,9.999947000000000141e-01
3.650000000000000000e+02,9.999945799999999663e-01
3.660000000000000000e+02,9.999944600000000294e-01
3.670000000000000000e+02,9.999943399999999816e-01
3.680000000000000000e+02,9.999942200000000447e-01
3.690000000000000000e+02,9.999940999999999969e-01
3.700000000000000000e+02,9.999939799999999490e-01
3.710000000000000000e+02,9.999938000000000438e-01
3.720000000000000000e+02,9.999936799999999959e-01
3.730000000000000000e+02,9.999935599999999480e-01
3.740000000000000000e+02,9.999933800000000428e-01
3.750000000000000000e+02,9.999932599999999949e-01
3.760000000000000000e+02,9.999930900000000289e-01
3.770000000000000000e+02,9.999929699999999810e-01
3.780000000000000000e+02,9.999927899999999648e-01
3.790000000000000000e+02,9.999926700000000279e-01
3.800000000000000000e+02,9.999924900000000116e-01
3.810000000000000000e+02,9.999923099999999954e-01
3.820000000000000000e+02,9.999921299999999791e-01
3.830000000000000000e+02,9.999920100000000422e-01
3.840000000000000000e+02,9.999918300000000260e-01
3.850000000000000000e+02,9.999916599999999489e-01
3.860000000000000000e+02,9.999914800000000437e-01
3.870000000000000000e+02,9.999913000000000274e-01
3.880000000000000000e+02,9.999910600000000427e-01
3.890000000000000000e+02,9.999908800000000264e-01
3.900000000000000000e+02,9.999907000000000101e-01
3.910000000000000000e+02,9.999905199999999938e-01
3.920000000000000000e+02,9.999902800000000092e-01
3.930000000000000000e+02,9.999901100000000431e-01
3.940000000000000000e+02,9.999898699999999474e-01
3.950000000000000000e+02,9.999896900000000421e-01
3.960000000000000000e+02,9.999894499999999464e-01
3.970000000000000000e+02,9.999892700000000412e-01
3.980000000000000000e+02,9.999890299999999455e-01
3.990000000000000000e+02,9.999887899999999608e-01
4.000000000000000000e+02,9.999885600000000263e-01
4.010000000000000000e+02,9.999883200000000416e-01
4.020000000000000000e+02,9.999880799999999459e-01
4.030000000000000000e+02,9.999878399999999612e-01
4.040000000000000000e+02,9.999875999999999765e-01
4.050000000000000000e+02,9.999873599999999918e-01
4.060000000000000000e+02,9.999870699999999779e-01
4.070000000000000000e+02,9.999868299999999932e-01
4.080000000000000000e+02,9.999865300000000401e-01
4.090000000000000000e+02,9.999862900000000554e-01
4.100000000000000000e+02,9.999859899999999913e-01
4.110000000000000000e+02,9.999856900000000381e-01
4.120000000000000000e+02,9.999854599999999927e-01
4.130000000000000000e+02,9.999851600000000396e-01
4.140000000000000000e+02,9.999848599999999754e-01
4.150000000000000000e+02,9.999845600000000223e-01
4.160000000000000000e+02,9.999841999999999897e-01
4.170000000000000000e+02,9.999839099999999759e-01
4.180000000000000000e+02,9.999836100000000227e-01
4.190000000000000000e+02,9.999832499999999902e-01
4.200000000000000000e+02,9.999829500000000371e-01
4.210000000000000000e+02,9.999826000000000548e-01
4.220000000000000000e+02,9.999822999999999906e-01
4.230000000000000000e+02,9.999819399999999581e-01
4.240000000000000000e+02,9.999815800000000365e-01
4.250000000000000000e+02,9.999812200000000040e-01
4.260000000000000000e+02,9.999808700000000217e-01
4.270000000000000000e+02,9.999804500000000207e-01
4.280000000000000000e+02,9.999800899999999881e-01
4.290000000000000000e+02,9.999797299999999556e-01
4.300000000000000000e+02,9.999793200000000049e-01
4.310000000000000000e+02,9.999789000000000039e-01
4.320000000000000000e+02,9.999785399999999713e-01
4.330000000000000000e+02,9.999781300000000206e-01
4.340000000000000000e+02,9.999777100000000196e-01
4.350000000000000000e+02,9.999772900000000186e-01
4.360000000000000000e+02,9.999768100000000492e-01
4.370000000000000000e+02,9.999763999999999875e-01
4.380000000000000000e+02,9.999759200000000181e-01
4.390000000000000000e+02,9.999755000000000171e-01
4.400000000000000000e+02,9.999750299999999870e-01
4.410000000000000000e+02,9.999745500000000176e-01
4.420000000000000000e+02,9.999740700000000482e-01
4.430000000000000000e+02,9.999736000000000180e-01
4.440000000000000000e+02,9.999731200000000486e-01
4.450000000000000000e+02,9.999726399999999682e-01
4.460000000000000000e+02,9.999721099999999696e-01
4.470000000000000000e+02,9.999715700000000318e-01
4.480000000000000000e+02,9.999710899999999514e-01
4.490000000000000000e+02,9.999705599999999528e-01
4.500000000000000000e+02,9.999700200000000150e-01
4.510000000000000000e+02,9.999694199999999977e-01
4.520000000000000000e+02,9.999688899999999991e-01
4.530000000000000000e+02,9.999682899999999819e-01
4.540000000000000000e+02,9.999677500000000441e-01
4.550000000000000000e+02,9.999671599999999660e-01
4.560000000000000000e+02,9.999665599999999488e-01
4.570000000000000000e+02,9.999659699999999818e-01
4.580000000000000000e+02,9.999653699999999645e-01
4.590000000000000000e+02,9.999647099999999789e-01
4.600000000000000000e+02,9.999641200000000119e-01
4.610000000000000000e+02,9.999634600000000262e-01
4.620000000000000000e+02,9.999628099999999797e-01
4.630000000000000000e+02,9.999621499999999941e-01
4.640000000000000000e+02,9.999614399999999792e-01
4.650000000000000000e+02,9.999607799999999935e-01
4.660000000000000000e+02,9.999600600000000394e-01
4.670000000000000000e+02,9.999594099999999930e-01
4.680000000000000000e+02,9.999586900000000389e-01
4.690000000000000000e+02,9.999579199999999446e-01
4.700000000000000000e+02,9.999571999999999905e-01
4.710000000000000000e+02,9.999564300000000072e-01
4.720000000000000000e+02,9.999557100000000531e-01
4.730000000000000000e+02,9.999549399999999588e-01
4.740000000000000000e+02,9.999541600000000363e-01
4.750000000000000000e+02,9.999533299999999736e-01
4.760000000000000000e+02,9.999525500000000511e-01
4.770000000000000000e+02,9.999517199999999884e-01
4.780000000000000000e+02,9.999508900000000367e-01
4.790000000000000000e+02,9.999500500000000347e-01
4.800000000000000000e+02,9.999492199999999720e-01
4.810000000000000000e+02,9.999483200000000016e-01
4.820000000000000000e+02,9.999474299999999705e-01
4.830000000000000000e+02,9.999465300000000001e-01
4.840000000000000000e+02,9.999456399999999689e-01
4.850000000000000000e+02,9.999447500000000488e-01
4.860000000000000000e+02,9.999437899999999990e-01
4.870000000000000000e+02,9.999428399999999995e-01
4.880000000000000000e+02,9.999418899999999999e-01
4.890000000000000000e+02,9.999409299999999501e-01
4.900000000000000000e+02,9.999399199999999821e-01
4.910000000000000000e+02,9.999389600000000433e-01
4.920000000000000000e+02,9.999379499999999643e-01
4.930000000000000000e+02,9.999368800000000279e-01
4.940000000000000000e+02,9.999358699999999489e-01
4.950000000000000000e+02,9.999347899999999623e-01
4.960000000000000000e+02,9.999337200000000259e-01
4.970000000000000000e+02,9.999326499999999784e-01
4.980000000000000000e+02,9.999315100000000234e-01
4.990000000000000000e+02,9.999303800000000075e-01
5.000000000000000000e+02,9.999292499999999917e-01
5.010000000000000000e+02,9.999281199999999759e-01
5.020000000000000000e+02,9.999269200000000524e-01
5.030000000000000000e+02,9.999257299999999571e-01
5.040000000000000000e+02,9.999245399999999728e-01
5.050000000000000000e+02,9.999233499999999886e-01
5.060000000000000000e+02,9.999221000000000359e-01
5.070000000000000000e+02,9.999208499999999722e-01
5.080000000000000000e+02,9.999195899999999693e-01
5.090000000000000000e+02,9.999182800000000482e-01
5.100000000000000000e+02,9.999169700000000161e-01
5.110000000000000000e+02,9.999156599999999839e-01
5.120000000000000000e+02,9.999143499999999518e-01
5.130000000000000000e+02,9.999129799999999513e-01
5.140000000000000000e+02,9.999116099999999507e-01
5.150000000000000000e+02,9.999102399999999502e-01
5.160000000000000000e+02,9.999088000000000420e-01
5.170000000000000000e+02,9.999073699999999620e-01
5.180000000000000000e+02,9.999059399999999931e-01
5.190000000000000000e+02,9.999044499999999447e-01
5.200000000000000000e+02,9.999029600000000073e-01
5.210000000000000000e+02,9.999014699999999589e-01
5.220000000000000000e+02,9.998999200000000531e-01
5.230000000000000000e+02,9.998983700000000363e-01
5.240000000000000000e+02,9.998968200000000195e-01
5.250000000000000000e+02,9.998952199999999735e-01
5.260000000000000000e+02,9.998936099999999882e-01
5.270000000000000000e+02,9.998920000000000030e-01
5.280000000000000000e+02,9.998903300000000494e-01
5.290000000000000000e+02,9.998886599999999847e-01
5.300000000000000000e+02,9.998869299999999516e-01
5.310000000000000000e+02,9.998852599999999979e-01
5.320000000000000000e+02,9.998834699999999964e-01
5.330000000000000000e+02,9.998817399999999633e-01
5.340000000000000000e+02,9.998799600000000121e-01
5.350000000000000000e+02,9.998781700000000106e-01
5.360000000000000000e+02,9.998763200000000406e-01
5.370000000000000000e+02,9.998744699999999597e-01
5.380000000000000000e+02,9.998725699999999605e-01
5.390000000000000000e+02,9.998706600000000222e-01
5.400000000000000000e+02,9.998687499999999728e-01
5.410000000000000000e+02,9.998667799999999550e-01
5.420000000000000000e+02,9.998648199999999875e-01
5.430000000000000000e+02,9.998628499999999697e-01
5.440000000000000000e+02,9.998608199999999835e-01
5.450000000000000000e+02,9.998588000000000475e-01
5.460000000000000000e+02,9.998567099999999819e-01
5.470000000000000000e+02,9.998546200000000272e-01
5.480000000000000000e+02,9.998524800000000434e-01
5.490000000000000000e+02,9.998503300000000094e-01
5.500000000000000000e+02,9.998481299999999461e-01
5.510000000000000000e+02,9.998459200000000546e-01
5.520000000000000000e+02,9.998437199999999914e-01
5.530000000000000000e+02,9.998414500000000205e-01
5.540000000000000000e+02,9.998391899999999888e-01
5.550000000000000000e+02,9.998368600000000495e-01
5.560000000000000000e+02,9.998345400000000494e-01
5.570000000000000000e+02,9.998321500000000306e-01
5.580000000000000000e+02,9.998297699999999510e-01
5.590000000000000000e+02,9.998273300000000141e-01
5.600000000000000000e+02,9.998248800000000269e-01
5.610000000000000000e+02,9.998223800000000105e-01
5.620000000000000000e+02,9.998198700000000549e-01
5.630000000000000000e+02,9.998173700000000386e-01
5.640000000000000000e+02,9.998148100000000538e-01
5.650000000000000000e+02,9.998121899999999895e-01
5.660000000000000000e+02,9.998095599999999861e-01
5.670000000000000000e+02,9.998068799999999534e-01
5.680000000000000000e+02,9.998042000000000318e-01
5.690000000000000000e+02,9.998014600000000307e-01
5.700000000000000000e+02,9.997987200000000296e-01
5.710000000000000000e+02,9.997959100000000099e-01
5.720000000000000000e+02,9.997931100000000404e-01
5.730000000000000000e+02,9.997902499999999915e-01
5.740000000000000000e+02,9.997873900000000535e-01
5.750000000000000000e+02,9.997844700000000362e-01
5.760000000000000000e+02,9.997814900000000504e-01
5.770000000000000000e+02,9.997785099999999536e-01
5.780000000000000000e+02,9.997754699999999994e-01
5.790000000000000000e+02,9.997724300000000452e-01
5.800000000000000000e+02,9.997693300000000116e-01
5.810000000000000000e+02,9.997662299999999780e-01
5.820000000000000000e+02,9.997630699999999759e-01
5.830000000000000000e+02,9.997598500000000055e-01
5.840000000000000000e+02,9.997566300000000350e-01
5.850000000000000000e+02,9.997534200000000038e-01
5.860000000000000000e+02,9.997500799999999854e-01
5.870000000000000000e+02,9.997467399999999671e-01
5.880000000000000000e+02,9.997433999999999488e-01
5.890000000000000000e+02,9.997399399999999936e-01
5.900000000000000000e+02,9.997365499999999461e-01
5.910000000000000000e+02,9.997330300000000225e-01
5.920000000000000000e+02,9.997295099999999879e-01
5.930000000000000000e+02,9.997259400000000351e-01
5.940000000000000000e+02,9.997223600000000321e-01
5.950000000000000000e+02,9.997187299999999999e-01
5.960000000000000000e+02,9.997150299999999490e-01
5.970000000000000000e+02,9.997113300000000091e-01
5.980000000000000000e+02,9.997075800000000401e-01
5.990000000000000000e+02,9.997037600000000523e-01