# Time [s], Temperature [C]
1.000000000000000000e+00,2.499997099999999861e+01
2.000000000000000000e+00,3.350051500000000004e+01
3.000000000000000000e+00,3.833237100000000197e+01
4.000000000000000000e+00,4.224417499999999848e+01
5.000000000000000000e+00,4.551939800000000247e+01
6.000000000000000000e+00,4.839807499999999862e+01
7.000000000000000000e+00,5.098204400000000192e+01
8.000000000000000000e+00,5.334190000000000254e+01
9.000000000000000000e+00,5.552185099999999807e+01
1.000000000000000000e+01,5.755444299999999913e+01
1.100000000000000000e+01,5.946260800000000302e+01
1.200000000000000000e+01,6.126484700000000316e+01
1.300000000000000000e+01,6.297463599999999673e+01
1.400000000000000000e+01,6.460325600000000179e+01
1.500000000000000000e+01,6.615997299999999370e+01
1.600000000000000000e+01,6.765241199999999822e+01
1.700000000000000000e+01,6.908644099999999355e+01
1.800000000000000000e+01,7.046745300000000611e+01
1.900000000000000000e+01,7.180056799999999839e+01
2.000000000000000000e+01,7.308902000000000498e+01
2.100000000000000000e+01,7.433681500000000142e+01
2.200000000000000000e+01,7.554676800000000014e+01
2.300000000000000000e+01,7.672171799999999564e+01
2.400000000000000000e+01,7.786373899999999537e+01
2.500000000000000000e+01,7.897498299999999460e+01
2.600000000000000000e+01,8.005759399999999459e+01
2.700000000000000000e+01,8.111349500000000035e+01
2.800000000000000000e+01,8.214337899999999593e+01
2.900000000000000000e+01,8.314924600000000510e+01
3.000000000000000000e+01,8.413259899999999902e+01
3.100000000000000000e+01,8.509387200000000462e+01
3.200000000000000000e+01,8.603509499999999832e+01
3.300000000000000000e+01,8.695646700000000351e+01
3.400000000000000000e+01,8.785919199999999307e+01
3.500000000000000000e+01,8.874446899999999516e+01
3.600000000000000000e+01,8.961241099999999449e+01
3.700000000000000000e+01,9.046405000000000030e+01
3.800000000000000000e+01,9.130047600000000330e+01
3.900000000000000000e+01,9.212189499999999498e+01
4.000000000000000000e+01,9.292890900000000443e+01
4.100000000000000000e+01,9.372222899999999868e+01
4.200000000000000000e+01,9.450227399999999989e+01
4.300000000000000000e+01,9.526955399999999941e+01
4.400000000000000000e+01,9.602465100000000575e+01
4.500000000000000000e+01,9.676784499999999412e+01
4.600000000000000000e+01,9.749959599999999682e+01
4.700000000000000000e+01,9.822069500000000630e+01
4.800000000000000000e+01,9.893097699999999861e+01
4.900000000000000000e+01,9.963092799999999727e+01
5.000000000000000000e+01,1.003210100000000011e+02
5.100000000000000000e+01,1.010016300000000058e+02
5.200000000000000000e+01,1.016730299999999971e+02
5.300000000000000000e+01,1.023353699999999975e+02
5.400000000000000000e+01,1.029888799999999947e+02
5.500000000000000000e+01,1.036342800000000040e+02
5.600000000000000000e+01,1.042713200000000029e+02
5.700000000000000000e+01,1.049005700000000019e+02
5.800000000000000000e+01,1.055220999999999947e+02
5.900000000000000000e+01,1.061361399999999975e+02
6.000000000000000000e+01,1.067432900000000018e+02
6.100000000000000000e+01,1.073430599999999941e+02
6.200000000000000000e+01,1.079364900000000063e+02
6.300000000000000000e+01,1.085228400000000022e+02
6.400000000000000000e+01,1.091029099999999943e+02
6.500000000000000000e+01,1.096768600000000049e+02
6.600000000000000000e+01,1.102447499999999962e+02
6.700000000000000000e+01,1.108067300000000017e+02
6.800000000000000000e+01,1.113633300000000048e+02
6.900000000000000000e+01,1.119141199999999969e+02
7.000000000000000000e+01,1.124594699999999960e+02
7.100000000000000000e+01,1.129997299999999996e+02
7.200000000000000000e+01,1.135348000000000042e+02
7.300000000000000000e+01,1.140650899999999979e+02
7.400000000000000000e+01,1.145903899999999993e+02
7.500000000000000000e+01,1.151109199999999930e+02
7.600000000000000000e+01,1.156268799999999999e+02
7.700000000000000000e+01,1.161385700000000014e+02
7.800000000000000000e+01,1.166459399999999960e+02
7.900000000000000000e+01,1.171487599999999958e+02
8.000000000000000000e+01,1.176478199999999958e+02
8.100000000000000000e+01,1.181428499999999957e+02
8.200000000000000000e+01,1.186340399999999988e+02
8.300000000000000000e+01,1.191210700000000031e+02
8.400000000000000000e+01,1.196046400000000034e+02
8.500000000000000000e+01,1.200846700000000027e+02
8.600000000000000000e+01,1.205612200000000058e+02
8.700000000000000000e+01,1.210338799999999964e+02
8.800000000000000000e+01,1.215035599999999931e+02
8.900000000000000000e+01,1.219700799999999958e+02
9.000000000000000000e+01,1.224333299999999980e+02
9.100000000000000000e+01,1.228932300000000026e+02
9.200000000000000000e+01,1.233503599999999949e+02
9.300000000000000000e+01,1.238043700000000058e+02
9.400000000000000000e+01,1.242556500000000028e+02
9.500000000000000000e+01,1.247041300000000064e+02
9.600000000000000000e+01,1.251498100000000022e+02
9.700000000000000000e+01,1.255926000000000045e+02
9.800000000000000000e+01,1.260329700000000059e+02
9.900000000000000000e+01,1.264707700000000017e+02
1.000000000000000000e+02,1.269060199999999980e+02
1.010000000000000000e+02,1.273387100000000061e+02
1.020000000000000000e+02,1.277691700000000026e+02
1.030000000000000000e+02,1.281972499999999968e+02
1.040000000000000000e+02,1.286228900000000124e+02
1.050000000000000000e+02,1.290464000000000055e+02
1.060000000000000000e+02,1.294677399999999921e+02
1.070000000000000000e+02,1.298869500000000130e+02
1.080000000000000000e+02,1.303040000000000020e+02
1.090000000000000000e+02,1.307190200000000004e+02
1.100000000000000000e+02,1.311321100000000115e+02
1.110000000000000000e+02,1.315431700000000035e+02
1.120000000000000000e+02,1.319523000000000081e+02
1.130000000000000000e+02,1.323596000000000004e+02
1.140000000000000000e+02,1.327650099999999895e+02
1.150000000000000000e+02,1.331686100000000010e+02
1.160000000000000000e+02,1.335705000000000098e+02
1.170000000000000000e+02,1.339703100000000120e+02
1.180000000000000000e+02,1.343684499999999957e+02
1.190000000000000000e+02,1.347650299999999959e+02
1.200000000000000000e+02,1.351599600000000123e+02
1.210000000000000000e+02,1.355532699999999977e+02
1.220000000000000000e+02,1.359450699999999870e+02
1.230000000000000000e+02,1.363352999999999895e+02
1.240000000000000000e+02,1.367239700000000084e+02
1.250000000000000000e+02,1.371112200000000030e+02
1.260000000000000000e+02,1.374969600000000014e+02
1.270000000000000000e+02,1.378812100000000100e+02
1.280000000000000000e+02,1.382641000000000133e+02
1.290000000000000000e+02,1.386455200000000048e+02
1.300000000000000000e+02,1.390255400000000066e+02
1.310000000000000000e+02,1.394042699999999968e+02
1.320000000000000000e+02,1.397815899999999942e+02
1.330000000000000000e+02,1.401575799999999958e+02
1.340000000000000000e+02,1.405323300000000017e+02
1.350000000000000000e+02,1.409057899999999961e+02
1.360000000000000000e+02,1.412779700000000105e+02
1.370000000000000000e+02,1.416489699999999914e+02
1.380000000000000000e+02,1.420187099999999987e+02
1.390000000000000000e+02,1.423872399999999914e+02
1.400000000000000000e+02,1.427546499999999980e+02
1.410000000000000000e+02,1.431210599999999999e+02
1.420000000000000000e+02,1.434863400000000127e+02
1.430000000000000000e+02,1.438503399999999885e+02
1.440000000000000000e+02,1.442131799999999942e+02
1.450000000000000000e+02,1.445748700000000042e+02
1.460000000000000000e+02,1.449355300000000000e+02
1.470000000000000000e+02,1.452950700000000097e+02
1.480000000000000000e+02,1.456535299999999893e+02
1.490000000000000000e+02,1.460109999999999957e+02
1.500000000000000000e+02,1.463674000000000035e+02
1.510000000000000000e+02,1.467227599999999939e+02
1.520000000000000000e+02,1.470771499999999889e+02
1.530000000000000000e+02,1.474306500000000142e+02
1.540000000000000000e+02,1.477829900000000123e+02
1.550000000000000000e+02,1.481344300000000089e+02
1.560000000000000000e+02,1.484848599999999976e+02
1.570000000000000000e+02,1.488345199999999977e+02
1.580000000000000000e+02,1.491831699999999898e+02
1.590000000000000000e+02,1.495307899999999961e+02
1.600000000000000000e+02,1.498774699999999882e+02
1.610000000000000000e+02,1.502233300000000042e+02
1.620000000000000000e+02,1.505684100000000001e+02
1.630000000000000000e+02,1.509123800000000131e+02
1.640000000000000000e+02,1.512555399999999963e+02
1.650000000000000000e+02,1.515977599999999939e+02
1.660000000000000000e+02,1.519390999999999963e+02
1.670000000000000000e+02,1.522798300000000040e+02
1.680000000000000000e+02,1.526195199999999943e+02
1.690000000000000000e+02,1.529584499999999991e+02
1.700000000000000000e+02,1.532964200000000119e+02
1.710000000000000000e+02,1.536335300000000075e+02
1.720000000000000000e+02,1.539697899999999890e+02
1.730000000000000000e+02,1.543052800000000104e+02
1.740000000000000000e+02,1.546399800000000084e+02
1.750000000000000000e+02,1.549738800000000083e+02
1.760000000000000000e+02,1.553073100000000011e+02
1.770000000000000000e+02,1.556396200000000078e+02
1.780000000000000000e+02,1.559711000000000070e+02
1.790000000000000000e+02,1.563018199999999922e+02
1.800000000000000000e+02,1.566317099999999982e+02
1.810000000000000000e+02,1.569608000000000061e+02
1.820000000000000000e+02,1.572893200000000036e+02
1.830000000000000000e+02,1.576170700000000124e+02
1.840000000000000000e+02,1.579439999999999884e+02
1.850000000000000000e+02,1.582702199999999948e+02
1.860000000000000000e+02,1.585955800000000124e+02
1.870000000000000000e+02,1.589201700000000130e+02
1.880000000000000000e+02,1.592441900000000032e+02
1.890000000000000000e+02,1.595672800000000109e+02
1.900000000000000000e+02,1.598898199999999861e+02
1.910000000000000000e+02,1.602115499999999884e+02
1.920000000000000000e+02,1.605325300000000084e+02
1.930000000000000000e+02,1.608529499999999928e+02
1.940000000000000000e+02,1.611725299999999947e+02
1.950000000000000000e+02,1.614913599999999860e+02
1.960000000000000000e+02,1.618096299999999985e+02
1.970000000000000000e+02,1.621271099999999876e+02
1.980000000000000000e+02,1.624439099999999883e+02
1.990000000000000000e+02,1.627598399999999970e+02
2.000000000000000000e+02,1.630751999999999953e+02
2.010000000000000000e+02,1.633898299999999892e+02
2.020000000000000000e+02,1.637039000000000044e+02
2.030000000000000000e+02,1.640173599999999965e+02
2.040000000000000000e+02,1.643299399999999935e+02
2.050000000000000000e+02,1.646418199999999956e+02
2.060000000000000000e+02,1.649531100000000094e+02
2.070000000000000000e+02,1.652636899999999969e+02
2.080000000000000000e+02,1.655738499999999931e+02
2.090000000000000000e+02,1.658831199999999910e+02
2.100000000000000000e+02,1.661916699999999878e+02
2.110000000000000000e+02,1.664995099999999866e+02
2.120000000000000000e+02,1.668068700000000035e+02
2.130000000000000000e+02,1.671135899999999879e+02
2.140000000000000000e+02,1.674195699999999931e+02
2.150000000000000000e+02,1.677248800000000131e+02
2.160000000000000000e+02,1.680294800000000066e+02
2.170000000000000000e+02,1.683335099999999898e+02
2.180000000000000000e+02,1.686370400000000132e+02
2.190000000000000000e+02,1.689398300000000006e+02
2.200000000000000000e+02,1.692418700000000058e+02
2.210000000000000000e+02,1.695434099999999944e+02
2.220000000000000000e+02,1.698440999999999974e+02
2.230000000000000000e+02,1.701443299999999965e+02
2.240000000000000000e+02,1.704439199999999914e+02
2.250000000000000000e+02,1.707429700000000139e+02
2.260000000000000000e+02,1.710411799999999971e+02
2.270000000000000000e+02,1.713388099999999952e+02
2.280000000000000000e+02,1.716359099999999955e+02
2.290000000000000000e+02,1.719324200000000076e+02
2.300000000000000000e+02,1.722282299999999964e+02
2.310000000000000000e+02,1.725233800000000031e+02
2.320000000000000000e+02,1.728180199999999900e+02
2.330000000000000000e+02,1.731120899999999949e+02
2.340000000000000000e+02,1.734053600000000017e+02
2.350000000000000000e+02,1.736980399999999918e+02
2.360000000000000000e+02,1.739902800000000127e+02
2.370000000000000000e+02,1.742818800000000010e+02
2.380000000000000000e+02,1.745726899999999944e+02
2.390000000000000000e+02,1.748629799999999932e+02
2.400000000000000000e+02,1.751526200000000131e+02
2.410000000000000000e+02,1.754418799999999976e+02
2.420000000000000000e+02,1.757303300000000092e+02
2.430000000000000000e+02,1.760181399999999883e+02
2.440000000000000000e+02,1.763054700000000139e+02
2.450000000000000000e+02,1.765922999999999945e+02
2.460000000000000000e+02,1.768783599999999865e+02
2.470000000000000000e+02,1.771637599999999964e+02
2.480000000000000000e+02,1.774487200000000087e+02
2.490000000000000000e+02,1.777330900000000042e+02
2.500000000000000000e+02,1.780167999999999893e+02
2.510000000000000000e+02,1.783000000000000114e+02
2.520000000000000000e+02,1.785824399999999912e+02
2.530000000000000000e+02,1.788644999999999925e+02
2.540000000000000000e+02,1.791459199999999896e+02
2.550000000000000000e+02,1.794267399999999952e+02
2.560000000000000000e+02,1.797068199999999933e+02
2.570000000000000000e+02,1.799865599999999972e+02
2.580000000000000000e+02,1.802657199999999875e+02
2.590000000000000000e+02,1.805440700000000049e+02
2.600000000000000000e+02,1.808220699999999965e+02
2.610000000000000000e+02,1.810993699999999933e+02
2.620000000000000000e+02,1.813761700000000019e+02
2.630000000000000000e+02,1.816522799999999904e+02
2.640000000000000000e+02,1.819279300000000035e+02
2.650000000000000000e+02,1.822029599999999903e+02
2.660000000000000000e+02,1.824773600000000044e+02
2.670000000000000000e+02,1.827512099999999862e+02
2.680000000000000000e+02,1.830246600000000115e+02
2.690000000000000000e+02,1.832973900000000071e+02
2.700000000000000000e+02,1.835695299999999861e+02
2.710000000000000000e+02,1.838413199999999961e+02
2.720000000000000000e+02,1.841123200000000111e+02
2.730000000000000000e+02,1.843827499999999873e+02
2.740000000000000000e+02,1.846525900000000036e+02
2.750000000000000000e+02,1.849221300000000099e+02
2.760000000000000000e+02,1.851908599999999865e+02
2.770000000000000000e+02,1.854590499999999906e+02
2.780000000000000000e+02,1.857269599999999912e+02
2.790000000000000000e+02,1.859940200000000061e+02
2.800000000000000000e+02,1.862605000000000075e+02
2.810000000000000000e+02,1.865267299999999864e+02
2.820000000000000000e+02,1.867921599999999955e+02
2.830000000000000000e+02,1.870569800000000100e+02
2.840000000000000000e+02,1.873214099999999860e+02
2.850000000000000000e+02,1.875852800000000116e+02
2.860000000000000000e+02,1.878484799999999950e+02
2.870000000000000000e+02,1.881112200000000030e+02
2.880000000000000000e+02,1.883734399999999880e+02
2.890000000000000000e+02,1.886350300000000004e+02
2.900000000000000000e+02,1.888961600000000089e+02
2.910000000000000000e+02,1.891567100000000039e+02
2.920000000000000000e+02,1.894166600000000074e+02
2.930000000000000000e+02,1.896761799999999880e+02
2.940000000000000000e+02,1.899351200000000119e+02
2.950000000000000000e+02,1.901934699999999907e+02
2.960000000000000000e+02,1.904513900000000035e+02
2.970000000000000000e+02,1.907086899999999901e+02
2.980000000000000000e+02,1.909654999999999916e+02
2.990000000000000000e+02,1.912216799999999921e+02
3.000000000000000000e+02,1.914774199999999951e+02
3.010000000000000000e+02,1.917325600000000065e+02
3.020000000000000000e+02,1.919870899999999949e+02
3.030000000000000000e+02,1.922412400000000048e+02
3.040000000000000000e+02,1.924947999999999979e+02
3.050000000000000000e+02,1.927477700000000027e+02
3.060000000000000000e+02,1.930003499999999974e+02
3.070000000000000000e+02,1.932523300000000006e+02
3.080000000000000000e+02,1.935037100000000123e+02
3.090000000000000000e+02,1.937547000000000139e+02
3.100000000000000000e+02,1.940050999999999988e+02
3.110000000000000000e+02,1.942548999999999921e+02
3.120000000000000000e+02,1.945043900000000008e+02
3.130000000000000000e+02,1.947531099999999924e+02
3.140000000000000000e+02,1.950013299999999958e+02
3.150000000000000000e+02,1.952492200000000082e+02
3.160000000000000000e+02,1.954963700000000131e+02
3.170000000000000000e+02,1.957430300000000045e+02
3.180000000000000000e+02,1.959893600000000049e+02
3.190000000000000000e+02,1.962349700000000041e+02
3.200000000000000000e+02,1.964801799999999901e+02
3.210000000000000000e+02,1.967248700000000099e+02
3.220000000000000000e+02,1.969689600000000098e+02
3.230000000000000000e+02,1.972126299999999901e+02
3.240000000000000000e+02,1.974557599999999979e+02
3.250000000000000000e+02,1.976983199999999954e+02
3.260000000000000000e+02,1.979405700000000081e+02
3.270000000000000000e+02,1.981820800000000133e+02
3.280000000000000000e+02,1.984231599999999958e+02
3.290000000000000000e+02,1.986637599999999964e+02
3.300000000000000000e+02,1.989037600000000054e+02
3.310000000000000000e+02,1.991433100000000138e+02
3.320000000000000000e+02,1.993823700000000088e+02
3.330000000000000000e+02,1.996209399999999903e+02
3.340000000000000000e+02,1.998588599999999929e+02
3.350000000000000000e+02,2.000964999999999918e+02
3.360000000000000000e+02,2.003335899999999867e+02
3.370000000000000000e+02,2.005700999999999965e+02
3.380000000000000000e+02,2.008062099999999930e+02
3.390000000000000000e+02,2.010416600000000074e+02
3.400000000000000000e+02,2.012767000000000053e+02
3.410000000000000000e+02,2.015112900000000025e+02
3.420000000000000000e+02,2.017452199999999891e+02
3.430000000000000000e+02,2.019788499999999942e+02
3.440000000000000000e+02,2.022118499999999983e+02
3.450000000000000000e+02,2.024445499999999925e+02
3.460000000000000000e+02,2.026764799999999980e+02
3.470000000000000000e+02,2.029079900000000123e+02
3.480000000000000000e+02,2.031391900000000135e+02
3.490000000000000000e+02,2.033696700000000135e+02
3.500000000000000000e+02,2.035999600000000100e+02
3.510000000000000000e+02,2.038294699999999864e+02
3.520000000000000000e+02,2.040584900000000061e+02
3.530000000000000000e+02,2.042872800000000097e+02
3.540000000000000000e+02,2.045153200000000027e+02
3.550000000000000000e+02,2.047430899999999951e+02
3.560000000000000000e+02,2.049702100000000087e+02
3.570000000000000000e+02,2.051969100000000026e+02
3.580000000000000000e+02,2.054231299999999862e+02
3.590000000000000000e+02,2.056488300000000038e+02
3.600000000000000000e+02,2.058741899999999987e+02
3.610000000000000000e+02,2.060988600000000019e+02
3.620000000000000000e+02,2.063231499999999983e+02
3.630000000000000000e+02,2.065469500000000096e+02
3.640000000000000000e+02,2.067702600000000075e+02
3.650000000000000000e+02,2.069931799999999953e+02
3.660000000000000000e+02,2.072155199999999979e+02
3.670000000000000000e+02,2.074374799999999937e+02
3.680000000000000000e+02,2.076588600000000042e+02
3.690000000000000000e+02,2.078798099999999920e+02
3.700000000000000000e+02,2.081002799999999979e+02
3.710000000000000000e+02,2.083203399999999874e+02
3.720000000000000000e+02,2.085398600000000044e+02
3.730000000000000000e+02,2.087589299999999923e+02
3.740000000000000000e+02,2.089774299999999982e+02
3.750000000000000000e+02,2.091955900000000099e+02
3.760000000000000000e+02,2.094132400000000018e+02
3.770000000000000000e+02,2.096304299999999898e+02
3.780000000000000000e+02,2.098471700000000055e+02
3.790000000000000000e+02,2.100634000000000015e+02
3.800000000000000000e+02,2.102792499999999905e+02
3.810000000000000000e+02,2.104944600000000037e+02
3.820000000000000000e+02,2.107093800000000101e+02
3.830000000000000000e+02,2.109237099999999998e+02
3.840000000000000000e+02,2.111377599999999859e+02
3.850000000000000000e+02,2.113511200000000088e+02
3.860000000000000000e+02,2.115642200000000059e+02
3.870000000000000000e+02,2.117768100000000118e+02
3.880000000000000000e+02,2.119888899999999978e+02
3.890000000000000000e+02,2.122005599999999959e+02
3.900000000000000000e+02,2.124116199999999992e+02
3.910000000000000000e+02,2.126224200000000053e+02
3.920000000000000000e+02,2.128326299999999947e+02
3.930000000000000000e+02,2.130425299999999993e+02
3.940000000000000000e+02,2.132517400000000123e+02
3.950000000000000000e+02,2.134607799999999997e+02
3.960000000000000000e+02,2.136691299999999956e+02
3.970000000000000000e+02,2.138772099999999909e+02
3.980000000000000000e+02,2.140846999999999980e+02
3.990000000000000000e+02,2.142917899999999918e+02
4.000000000000000000e+02,2.144984100000000069e+02
4.010000000000000000e+02,2.147046200000000056e+02
4.020000000000000000e+02,2.149103499999999940e+02
4.030000000000000000e+02,2.151156000000000006e+02
4.040000000000000000e+02,2.153205700000000036e+02
4.050000000000000000e+02,2.155248699999999928e+02
4.060000000000000000e+02,2.157289100000000133e+02
4.070000000000000000e+02,2.159323599999999885e+02
4.080000000000000000e+02,2.161355299999999886e+02
4.090000000000000000e+02,2.163380400000000066e+02
4.100000000000000000e+02,2.165403100000000052e+02
4.110000000000000000e+02,2.167419399999999996e+02
4.120000000000000000e+02,2.169432999999999936e+02
4.130000000000000000e+02,2.171440900000000056e+02
4.140000000000000000e+02,2.173444800000000043e+02
4.150000000000000000e+02,2.175444200000000023e+02
4.160000000000000000e+02,2.177439699999999903e+02
4.170000000000000000e+02,2.179430399999999963e+02
4.180000000000000000e+02,2.181416800000000080e+02
4.190000000000000000e+02,2.183399000000000001e+02
4.200000000000000000e+02,2.185376699999999914e+02
4.210000000000000000e+02,2.187349499999999978e+02
4.220000000000000000e+02,2.189318700000000035e+02
4.230000000000000000e+02,2.191282999999999959e+02
4.240000000000000000e+02,2.193242999999999938e+02
4.250000000000000000e+02,2.195199100000000101e+02
4.260000000000000000e+02,2.197150599999999940e+02
4.270000000000000000e+02,2.199097600000000057e+02
4.280000000000000000e+02,2.201040800000000104e+02
4.290000000000000000e+02,2.202979300000000080e+02
4.300000000000000000e+02,2.204913500000000113e+02
4.310000000000000000e+02,2.206843700000000013e+02
4.320000000000000000e+02,2.208769200000000126e+02
4.330000000000000000e+02,2.210690299999999979e+02
4.340000000000000000e+02,2.212607600000000048e+02
4.350000000000000000e+02,2.214520100000000014e+02
4.360000000000000000e+02,2.216427899999999909e+02
4.370000000000000000e+02,2.218332499999999925e+02
4.380000000000000000e+02,2.220231300000000090e+02
4.390000000000000000e+02,2.222127399999999966e+02
4.400000000000000000e+02,2.224018100000000118e+02
4.410000000000000000e+02,2.225905899999999917e+02
4.420000000000000000e+02,2.227787500000000023e+02
4.430000000000000000e+02,2.229667200000000093e+02
4.440000000000000000e+02,2.231540400000000091e+02
4.450000000000000000e+02,2.233411099999999863e+02
4.460000000000000000e+02,2.235276000000000067e+02
4.470000000000000000e+02,2.237138400000000047e+02
4.480000000000000000e+02,2.238994399999999985e+02
4.490000000000000000e+02,2.240848699999999951e+02
4.500000000000000000e+02,2.242696500000000128e+02
4.510000000000000000e+02,2.244541800000000080e+02
4.520000000000000000e+02,2.246381399999999928e+02
4.530000000000000000e+02,2.248218200000000024e+02
4.540000000000000000e+02,2.250049099999999953e+02
4.550000000000000000e+02,2.251878100000000131e+02
4.560000000000000000e+02,2.253701199999999858e+02
4.570000000000000000e+02,2.255520500000000084e+02
4.580000000000000000e+02,2.257336099999999988e+02
4.590000000000000000e+02,2.259147000000000105e+02
4.600000000000000000e+02,2.260953800000000058e+02
4.610000000000000000e+02,2.262756699999999910e+02
4.620000000000000000e+02,2.264556300000000135e+02
4.630000000000000000e+02,2.266349600000000066e+02
4.640000000000000000e+02,2.268140999999999963e+02
4.650000000000000000e+02,2.269926100000000133e+02
4.660000000000000000e+02,2.271708800000000110e+02
4.670000000000000000e+02,2.273486499999999921e+02
4.680000000000000000e+02,2.275260000000000105e+02
4.690000000000000000e+02,2.277029300000000092e+02
4.700000000000000000e+02,2.278795000000000073e+02
4.710000000000000000e+02,2.280556200000000047e+02
4.720000000000000000e+02,2.282313100000000077e+02
4.730000000000000000e+02,2.284066599999999880e+02
4.740000000000000000e+02,2.285815399999999897e+02
4.750000000000000000e+02,2.287560100000000034e+02
4.760000000000000000e+02,2.289301600000000008e+02
4.770000000000000000e+02,2.291038499999999942e+02
4.780000000000000000e+02,2.292771299999999997e+02
4.790000000000000000e+02,2.294500299999999982e+02
4.800000000000000000e+02,2.296224799999999959e+02
4.810000000000000000e+02,2.297945100000000025e+02
4.820000000000000000e+02,2.299661600000000021e+02
4.830000000000000000e+02,2.301374199999999917e+02
4.840000000000000000e+02,2.303081400000000087e+02
4.850000000000000000e+02,2.304786699999999939e+02
4.860000000000000000e+02,2.306486700000000098e+02
4.870000000000000000e+02,2.308182700000000125e+02
4.880000000000000000e+02,2.309874900000000082e+02
4.890000000000000000e+02,2.311562800000000095e+02
4.900000000000000000e+02,2.313247100000000103e+02
4.910000000000000000e+02,2.314926299999999912e+02
4.920000000000000000e+02,2.316603100000000097e+02
4.930000000000000000e+02,2.318274099999999862e+02
4.940000000000000000e+02,2.319943199999999877e+02
4.950000000000000000e+02,2.321607400000000041e+02
4.960000000000000000e+02,2.323267199999999946e+02
4.970000000000000000e+02,2.324923900000000003e+02
4.980000000000000000e+02,2.326574899999999957e+02
4.990000000000000000e+02,2.328223600000000033e+02
5.000000000000000000e+02,2.329866900000000101e+02
5.010000000000000000e+02,2.331507900000000006e+02
5.020000000000000000e+02,2.333142899999999997e+02
5.030000000000000000e+02,2.334776200000000017e+02
5.040000000000000000e+02,2.336405000000000030e+02
5.050000000000000000e+02,2.338028700000000129e+02
5.060000000000000000e+02,2.339650300000000129e+02
5.070000000000000000e+02,2.341265899999999931e+02
5.080000000000000000e+02,2.342879000000000076e+02
5.090000000000000000e+02,2.344488399999999899e+02
5.100000000000000000e+02,2.346092199999999934e+02
5.110000000000000000e+02,2.347693600000000060e+02
5.120000000000000000e+02,2.349289699999999925e+02
5.130000000000000000e+02,2.350883599999999944e+02
5.140000000000000000e+02,2.352472099999999955e+02
5.150000000000000000e+02,2.354057500000000118e+02
5.160000000000000000e+02,2.355639600000000087e+02
5.170000000000000000e+02,2.357216200000000015e+02
5.180000000000000000e+02,2.358790899999999908e+02
5.190000000000000000e+02,2.360360000000000014e+02
5.200000000000000000e+02,2.361925799999999924e+02
5.210000000000000000e+02,2.363489099999999894e+02
5.220000000000000000e+02,2.365046399999999949e+02
5.230000000000000000e+02,2.366601400000000126e+02
5.240000000000000000e+02,2.368151599999999917e+02
5.250000000000000000e+02,2.369697999999999922e+02
5.260000000000000000e+02,2.371240500000000111e+02
5.270000000000000000e+02,2.372779700000000105e+02
5.280000000000000000e+02,2.374315899999999999e+02
5.290000000000000000e+02,2.375846699999999885e+02
5.300000000000000000e+02,2.377374399999999923e+02
5.310000000000000000e+02,2.378898199999999861e+02
5.320000000000000000e+02,2.380418099999999981e+02
5.330000000000000000e+02,2.381934699999999907e+02
5.340000000000000000e+02,2.383447299999999984e+02
5.350000000000000000e+02,2.384955699999999865e+02
5.360000000000000000e+02,2.386460999999999899e+02
5.370000000000000000e+02,2.387962300000000084e+02
5.380000000000000000e+02,2.389459500000000105e+02
5.390000000000000000e+02,2.390953499999999963e+02
5.400000000000000000e+02,2.392443499999999972e+02
5.410000000000000000e+02,2.393928699999999878e+02
5.420000000000000000e+02,2.395411799999999971e+02
5.430000000000000000e+02,2.396890400000000056e+02
5.440000000000000000e+02,2.398365200000000073e+02
5.450000000000000000e+02,2.399836699999999894e+02
5.460000000000000000e+02,2.401304499999999962e+02
5.470000000000000000e+02,2.402768100000000118e+02
5.480000000000000000e+02,2.404228799999999922e+02
5.490000000000000000e+02,2.405684400000000096e+02
5.500000000000000000e+02,2.407137500000000045e+02
5.510000000000000000e+02,2.408586899999999957e+02
5.520000000000000000e+02,2.410032199999999989e+02
5.530000000000000000e+02,2.411474000000000046e+02
5.540000000000000000e+02,2.412911200000000065e+02
5.550000000000000000e+02,2.414345999999999890e+02
5.560000000000000000e+02,2.415777099999999962e+02
5.570000000000000000e+02,2.417203399999999931e+02
5.580000000000000000e+02,2.418627299999999991e+02
5.590000000000000000e+02,2.420047099999999887e+02
5.600000000000000000e+02,2.421462699999999870e+02
5.610000000000000000e+02,2.422875999999999976e+02
5.620000000000000000e+02,2.424283900000000074e+02
5.630000000000000000e+02,2.425689800000000105e+02
5.640000000000000000e+02,2.427092000000000098e+02
5.650000000000000000e+02,2.428489099999999894e+02
5.660000000000000000e+02,2.429884299999999939e+02
5.670000000000000000e+02,2.431275500000000136e+02
5.680000000000000000e+02,2.432661600000000135e+02
5.690000000000000000e+02,2.434046199999999942e+02
5.700000000000000000e+02,2.435426500000000090e+02
5.710000000000000000e+02,2.436802099999999882e+02
5.720000000000000000e+02,2.438175500000000113e+02
5.730000000000000000e+02,2.439544199999999989e+02
5.740000000000000000e+02,2.440909699999999987e+02
5.750000000000000000e+02,2.442272800000000075e+02
5.760000000000000000e+02,2.443630799999999965e+02
5.770000000000000000e+02,2.444985800000000040e+02
5.780000000000000000e+02,2.446338299999999890e+02
5.790000000000000000e+02,2.447685899999999890e+02
5.800000000000000000e+02,2.449029999999999916e+02
5.810000000000000000e+02,2.450371900000000096e+02
5.820000000000000000e+02,2.451708800000000110e+02
5.830000000000000000e+02,2.453042399999999930e+02
5.840000000000000000e+02,2.454373799999999903e+02
5.850000000000000000e+02,2.455700199999999995e+02
5.860000000000000000e+02,2.457023499999999956e+02
5.870000000000000000e+02,2.458343199999999911e+02
5.880000000000000000e+02,2.459659599999999955e+02
5.890000000000000000e+02,2.460972299999999962e+02
5.900000000000000000e+02,2.462281999999999869e+02
5.910000000000000000e+02,2.463588000000000022e+02
5.920000000000000000e+02,2.464890100000000075e+02
5.930000000000000000e+02,2.466189599999999871e+02
5.940000000000000000e+02,2.467485200000000134e+02
5.950000000000000000e+02,2.468777200000000107e+02
5.960000000000000000e+02,2.470066099999999949e+02
5.970000000000000000e+02,2.471351300000000037e+02
5.980000000000000000e+02,2.472632900000000120e+02
5.990000000000000000e+02,2.473911400000000071e+02