# Time [s], Temperature [C]
1.000000000000000000e+00,2.499998099999999823e+01
2.000000000000000000e+00,5.325213200000000313e+01
3.000000000000000000e+00,6.937522900000000448e+01
4.000000000000000000e+00,8.251100200000000484e+01
5.000000000000000000e+00,9.352613100000000657e+01
6.000000000000000000e+00,1.032264499999999998e+02
7.000000000000000000e+00,1.119430100000000010e+02
8.000000000000000000e+00,1.199116000000000071e+02
9.000000000000000000e+00,1.272813000000000017e+02
1.000000000000000000e+01,1.341626300000000072e+02
1.100000000000000000e+01,1.406418600000000083e+02
1.200000000000000000e+01,1.467882500000000050e+02
1.300000000000000000e+01,1.526616099999999960e+02
1.400000000000000000e+01,1.583053700000000106e+02
1.500000000000000000e+01,1.637418499999999995e+02
1.600000000000000000e+01,1.689697600000000079e+02
1.700000000000000000e+01,1.739790600000000040e+02
1.800000000000000000e+01,1.787576899999999966e+02
1.900000000000000000e+01,1.833022899999999993e+02
2.000000000000000000e+01,1.876254399999999976e+02
2.100000000000000000e+01,1.917187800000000095e+02
2.200000000000000000e+01,1.955868399999999951e+02
2.300000000000000000e+01,1.992515400000000056e+02
2.400000000000000000e+01,2.026683299999999974e+02
2.500000000000000000e+01,2.058419199999999876e+02
2.600000000000000000e+01,2.088347200000000043e+02
2.700000000000000000e+01,2.115409400000000062e+02
2.800000000000000000e+01,2.139991300000000081e+02
2.900000000000000000e+01,2.163575600000000065e+02
3.000000000000000000e+01,2.184085800000000006e+02
3.100000000000000000e+01,2.202579200000000128e+02
3.200000000000000000e+01,2.221607799999999884e+02
3.300000000000000000e+01,2.237435299999999927e+02
3.400000000000000000e+01,2.251980599999999981e+02
3.500000000000000000e+01,2.268750000000000000e+02
3.600000000000000000e+01,2.281908599999999865e+02
3.700000000000000000e+01,2.294471599999999967e+02
3.800000000000000000e+01,2.310623500000000092e+02
3.900000000000000000e+01,2.322539199999999937e+02
4.000000000000000000e+01,2.334376100000000065e+02
4.100000000000000000e+01,2.350849499999999921e+02
4.200000000000000000e+01,2.362365599999999972e+02
4.300000000000000000e+01,2.374184099999999944e+02
4.400000000000000000e+01,2.391440100000000086e+02
4.500000000000000000e+01,2.403060499999999990e+02
4.600000000000000000e+01,2.415248100000000022e+02
4.700000000000000000e+01,2.433464099999999917e+02
4.800000000000000000e+01,2.445493500000000040e+02
4.900000000000000000e+01,2.458197900000000118e+02
5.000000000000000000e+01,2.477322699999999998e+02
5.100000000000000000e+01,2.489921999999999969e+02
5.200000000000000000e+01,2.503173700000000110e+02
5.300000000000000000e+01,2.522999100000000112e+02
5.400000000000000000e+01,2.536176600000000008e+02
5.500000000000000000e+01,2.549859800000000121e+02
5.600000000000000000e+01,2.570053100000000086e+02
5.700000000000000000e+01,2.583744500000000244e+02
5.800000000000000000e+01,2.597689500000000180e+02
5.900000000000000000e+01,2.617835999999999785e+02
6.000000000000000000e+01,2.631910399999999868e+02
6.100000000000000000e+01,2.645993700000000217e+02
6.200000000000000000e+01,2.665737899999999740e+02
6.300000000000000000e+01,2.680059800000000223e+02
6.400000000000000000e+01,2.694203499999999849e+02
6.500000000000000000e+01,2.713319099999999935e+02
6.600000000000000000e+01,2.727789599999999837e+02
6.700000000000000000e+01,2.741975400000000036e+02
6.800000000000000000e+01,2.760415600000000040e+02
6.900000000000000000e+01,2.749998499999999808e+02
7.000000000000000000e+01,2.709386900000000082e+02
7.100000000000000000e+01,2.720157800000000066e+02
7.200000000000000000e+01,2.730695200000000114e+02
7.300000000000000000e+01,2.744547699999999963e+02
7.400000000000000000e+01,2.762602200000000039e+02
7.500000000000000000e+01,2.778227200000000039e+02
7.600000000000000000e+01,2.793175699999999892e+02
7.700000000000000000e+01,2.811121499999999855e+02
7.800000000000000000e+01,2.826693099999999959e+02
7.900000000000000000e+01,2.841600999999999999e+02
8.000000000000000000e+01,2.858818699999999922e+02
8.100000000000000000e+01,2.874140899999999874e+02
8.200000000000000000e+01,2.888828399999999874e+02
8.300000000000000000e+01,2.905433300000000258e+02
8.400000000000000000e+01,2.920407099999999900e+02
8.500000000000000000e+01,2.934862699999999904e+02
8.600000000000000000e+01,2.950802899999999909e+02
8.700000000000000000e+01,2.965452000000000226e+02
8.800000000000000000e+01,2.979609699999999748e+02
8.900000000000000000e+01,2.994962499999999750e+02
9.000000000000000000e+01,3.009216900000000123e+02
9.100000000000000000e+01,3.023042899999999804e+02
9.200000000000000000e+01,3.037820399999999950e+02
9.300000000000000000e+01,3.051676899999999932e+02
9.400000000000000000e+01,3.065233499999999935e+02
9.500000000000000000e+01,3.079469900000000280e+02
9.600000000000000000e+01,3.093001100000000179e+02
9.700000000000000000e+01,3.106212499999999750e+02
9.800000000000000000e+01,3.120037800000000061e+02
9.900000000000000000e+01,3.133236999999999739e+02
1.000000000000000000e+02,3.146167599999999993e+02
1.010000000000000000e+02,3.159586800000000153e+02
1.020000000000000000e+02,3.172516200000000026e+02
1.030000000000000000e+02,3.185185500000000047e+02
1.040000000000000000e+02,3.198234299999999735e+02
1.050000000000000000e+02,3.210840799999999717e+02
1.060000000000000000e+02,3.223261699999999905e+02
1.070000000000000000e+02,3.235965600000000109e+02
1.080000000000000000e+02,3.236306200000000217e+02
1.090000000000000000e+02,3.238676100000000133e+02
1.100000000000000000e+02,3.246168200000000184e+02
1.110000000000000000e+02,3.255068699999999922e+02
1.120000000000000000e+02,3.265049700000000144e+02
1.130000000000000000e+02,3.276127000000000180e+02
1.140000000000000000e+02,3.287361500000000092e+02
1.150000000000000000e+02,3.298763400000000274e+02
1.160000000000000000e+02,3.310588399999999751e+02
1.170000000000000000e+02,3.322306199999999876e+02
1.180000000000000000e+02,3.333977100000000178e+02
1.190000000000000000e+02,3.345894200000000183e+02
1.200000000000000000e+02,3.357566499999999792e+02
1.210000000000000000e+02,3.369142200000000003e+02
1.220000000000000000e+02,3.380901499999999942e+02
1.230000000000000000e+02,3.392419399999999996e+02
1.240000000000000000e+02,3.403804900000000089e+02
1.250000000000000000e+02,3.415248700000000213e+02
1.260000000000000000e+02,3.426515499999999861e+02
1.270000000000000000e+02,3.437654400000000123e+02
1.280000000000000000e+02,3.448867500000000064e+02
1.290000000000000000e+02,3.459929500000000075e+02
1.300000000000000000e+02,3.470841399999999908e+02
1.310000000000000000e+02,3.481807600000000207e+02
1.320000000000000000e+02,3.492609299999999735e+02
1.330000000000000000e+02,3.503333099999999831e+02
1.340000000000000000e+02,3.514068300000000136e+02
1.350000000000000000e+02,3.524645699999999806e+02
1.360000000000000000e+02,3.535154999999999745e+02
1.370000000000000000e+02,3.545671699999999760e+02
1.380000000000000000e+02,3.556048599999999738e+02
1.390000000000000000e+02,3.566398599999999988e+02
1.400000000000000000e+02,3.576721200000000067e+02
1.410000000000000000e+02,3.586906700000000114e+02
1.420000000000000000e+02,3.597027299999999741e+02
1.430000000000000000e+02,3.607135299999999916e+02
1.440000000000000000e+02,3.617192099999999755e+02
1.450000000000000000e+02,3.627114900000000262e+02
1.460000000000000000e+02,3.632725800000000049e+02
1.470000000000000000e+02,3.640812700000000177e+02
1.480000000000000000e+02,3.649809300000000007e+02
1.490000000000000000e+02,3.658675499999999943e+02
1.500000000000000000e+02,3.667601599999999848e+02
1.510000000000000000e+02,3.676572899999999890e+02
1.520000000000000000e+02,3.685690000000000168e+02
1.530000000000000000e+02,3.694838899999999740e+02
1.540000000000000000e+02,3.704055799999999863e+02
1.550000000000000000e+02,3.713304400000000101e+02
1.560000000000000000e+02,3.722559200000000033e+02
1.570000000000000000e+02,3.731844800000000077e+02
1.580000000000000000e+02,3.741111099999999965e+02
1.590000000000000000e+02,3.750378699999999981e+02
1.600000000000000000e+02,3.759577899999999886e+02
1.610000000000000000e+02,3.768814100000000167e+02
1.620000000000000000e+02,3.777941000000000145e+02
1.630000000000000000e+02,3.787075199999999882e+02
1.640000000000000000e+02,3.796171299999999746e+02
1.650000000000000000e+02,3.805198399999999879e+02
1.660000000000000000e+02,3.814173599999999738e+02
1.670000000000000000e+02,3.823168600000000197e+02
1.680000000000000000e+02,3.832064500000000180e+02
1.690000000000000000e+02,3.840911600000000021e+02
1.700000000000000000e+02,3.849738800000000083e+02
1.710000000000000000e+02,3.858515600000000063e+02
1.720000000000000000e+02,3.867212799999999788e+02
1.730000000000000000e+02,3.875918899999999780e+02
1.740000000000000000e+02,3.884534300000000258e+02
1.750000000000000000e+02,3.893091699999999946e+02
1.760000000000000000e+02,3.901653699999999958e+02
1.770000000000000000e+02,3.910122099999999818e+02
1.780000000000000000e+02,3.918565100000000143e+02
1.790000000000000000e+02,3.926996500000000196e+02
1.800000000000000000e+02,3.934075300000000084e+02
1.810000000000000000e+02,3.941323899999999867e+02
1.820000000000000000e+02,3.949002399999999966e+02
1.830000000000000000e+02,3.956723000000000070e+02
1.840000000000000000e+02,3.964413799999999810e+02
1.850000000000000000e+02,3.972121300000000019e+02
1.860000000000000000e+02,3.979816299999999956e+02
1.870000000000000000e+02,3.987512500000000273e+02
1.880000000000000000e+02,3.995207500000000209e+02
1.890000000000000000e+02,4.002917199999999980e+02
1.900000000000000000e+02,4.010630499999999756e+02
1.910000000000000000e+02,4.018387099999999919e+02
1.920000000000000000e+02,4.026103800000000206e+02
1.930000000000000000e+02,4.033814699999999789e+02
1.940000000000000000e+02,4.041523099999999999e+02
1.950000000000000000e+02,4.049166299999999978e+02
1.960000000000000000e+02,4.056813999999999965e+02
1.970000000000000000e+02,4.064454999999999814e+02
1.980000000000000000e+02,4.072059899999999857e+02
1.990000000000000000e+02,4.079640800000000240e+02
2.000000000000000000e+02,4.087210400000000163e+02
2.010000000000000000e+02,4.094734799999999950e+02
2.020000000000000000e+02,4.102218899999999735e+02
2.030000000000000000e+02,4.109711899999999787e+02
2.040000000000000000e+02,4.117143199999999865e+02
2.050000000000000000e+02,4.124531600000000253e+02
2.060000000000000000e+02,4.131891800000000217e+02
2.070000000000000000e+02,4.139214200000000119e+02
2.080000000000000000e+02,4.146498399999999833e+02
2.090000000000000000e+02,4.153716400000000135e+02
2.100000000000000000e+02,4.160928299999999922e+02
2.110000000000000000e+02,4.168125600000000190e+02
2.120000000000000000e+02,4.175053700000000276e+02
2.130000000000000000e+02,4.181782499999999914e+02
2.140000000000000000e+02,4.188484199999999760e+02
2.150000000000000000e+02,4.195179400000000101e+02
2.160000000000000000e+02,4.201859400000000164e+02
2.170000000000000000e+02,4.208527799999999957e+02
2.180000000000000000e+02,4.215189500000000180e+02
2.190000000000000000e+02,4.221808500000000208e+02
2.200000000000000000e+02,4.228426799999999730e+02
2.210000000000000000e+02,4.235020099999999843e+02
2.220000000000000000e+02,4.241597300000000246e+02
2.230000000000000000e+02,4.248181200000000217e+02
2.240000000000000000e+02,4.254769299999999816e+02
2.250000000000000000e+02,4.261317700000000173e+02
2.260000000000000000e+02,4.267865300000000275e+02
2.270000000000000000e+02,4.274388999999999896e+02
2.280000000000000000e+02,4.280895100000000184e+02
2.290000000000000000e+02,4.287425499999999943e+02
2.300000000000000000e+02,4.293896199999999794e+02
2.310000000000000000e+02,4.300333299999999781e+02
2.320000000000000000e+02,4.306764499999999884e+02
2.330000000000000000e+02,4.313158000000000243e+02
2.340000000000000000e+02,4.319575800000000072e+02
2.350000000000000000e+02,4.325925899999999729e+02
2.360000000000000000e+02,4.332252799999999979e+02
2.370000000000000000e+02,4.338566000000000145e+02
2.380000000000000000e+02,4.344859900000000152e+02
2.390000000000000000e+02,4.351134000000000128e+02
2.400000000000000000e+02,4.357345900000000256e+02
2.410000000000000000e+02,4.363532700000000091e+02
2.420000000000000000e+02,4.369752500000000168e+02
2.430000000000000000e+02,4.375896299999999997e+02
2.440000000000000000e+02,4.381850000000000023e+02
2.450000000000000000e+02,4.387719399999999723e+02
2.460000000000000000e+02,4.393603499999999826e+02
2.470000000000000000e+02,4.399457400000000007e+02
2.480000000000000000e+02,4.405301799999999730e+02
2.490000000000000000e+02,4.411101699999999823e+02
2.500000000000000000e+02,4.416930800000000090e+02
2.510000000000000000e+02,4.422715799999999717e+02
2.520000000000000000e+02,4.428477800000000002e+02
2.530000000000000000e+02,4.434222700000000259e+02
2.540000000000000000e+02,4.439931300000000078e+02
2.550000000000000000e+02,4.445663799999999810e+02
2.560000000000000000e+02,4.451335799999999949e+02
2.570000000000000000e+02,4.457049900000000093e+02
2.580000000000000000e+02,4.462711499999999774e+02
2.590000000000000000e+02,4.468397499999999809e+02
2.600000000000000000e+02,4.474047499999999786e+02
2.610000000000000000e+02,4.479658800000000269e+02
2.620000000000000000e+02,4.485303599999999733e+02
2.630000000000000000e+02,4.490891399999999862e+02
2.640000000000000000e+02,4.496510900000000106e+02
2.650000000000000000e+02,4.502097200000000043e+02
2.660000000000000000e+02,4.507671500000000151e+02
2.670000000000000000e+02,4.513227499999999850e+02
2.680000000000000000e+02,4.518770099999999843e+02
2.690000000000000000e+02,4.524293499999999995e+02
2.700000000000000000e+02,4.529823900000000094e+02
2.710000000000000000e+02,4.535303299999999922e+02
2.720000000000000000e+02,4.540777600000000120e+02
2.730000000000000000e+02,4.546240199999999732e+02
2.740000000000000000e+02,4.551687299999999823e+02
2.750000000000000000e+02,4.557139300000000048e+02
2.760000000000000000e+02,4.562540900000000192e+02
2.770000000000000000e+02,4.567970900000000256e+02
2.780000000000000000e+02,4.573361499999999751e+02
2.790000000000000000e+02,4.578651699999999778e+02
2.800000000000000000e+02,4.583946199999999749e+02
2.810000000000000000e+02,4.589213899999999740e+02
2.820000000000000000e+02,4.594455300000000193e+02
2.830000000000000000e+02,4.599677399999999921e+02
2.840000000000000000e+02,4.604910899999999856e+02
2.850000000000000000e+02,4.610082699999999818e+02
2.860000000000000000e+02,4.615286899999999832e+02
2.870000000000000000e+02,4.620466599999999744e+02
2.880000000000000000e+02,4.625640900000000215e+02
2.890000000000000000e+02,4.630836199999999963e+02
2.900000000000000000e+02,4.636006499999999733e+02
2.910000000000000000e+02,4.641191999999999780e+02
2.920000000000000000e+02,4.646325100000000248e+02
2.930000000000000000e+02,4.651502399999999966e+02
2.940000000000000000e+02,4.656657700000000091e+02
2.950000000000000000e+02,4.661816099999999778e+02
2.960000000000000000e+02,4.667005599999999959e+02
2.970000000000000000e+02,4.672164900000000216e+02
2.980000000000000000e+02,4.677350799999999822e+02
2.990000000000000000e+02,4.682504599999999755e+02
3.000000000000000000e+02,4.687699299999999880e+02
3.010000000000000000e+02,4.692878699999999981e+02
3.020000000000000000e+02,4.698069800000000100e+02
3.030000000000000000e+02,4.703261699999999905e+02
3.040000000000000000e+02,4.708472600000000057e+02
3.050000000000000000e+02,4.713690199999999777e+02
3.060000000000000000e+02,4.718912000000000262e+02
3.070000000000000000e+02,4.724160499999999843e+02
3.080000000000000000e+02,4.729389300000000276e+02
3.090000000000000000e+02,4.734664300000000026e+02
3.100000000000000000e+02,4.739936200000000213e+02
3.110000000000000000e+02,4.745249000000000024e+02
3.120000000000000000e+02,4.750539899999999989e+02
3.130000000000000000e+02,4.755889599999999859e+02
3.140000000000000000e+02,4.761238399999999729e+02
3.150000000000000000e+02,4.766615600000000086e+02
3.160000000000000000e+02,4.772015700000000038e+02
3.170000000000000000e+02,4.777439299999999776e+02
3.180000000000000000e+02,4.782891799999999876e+02
3.190000000000000000e+02,4.788395399999999995e+02
3.200000000000000000e+02,4.793897999999999797e+02
3.210000000000000000e+02,4.799473300000000222e+02
3.220000000000000000e+02,4.805072299999999927e+02
3.230000000000000000e+02,4.810723899999999844e+02
3.240000000000000000e+02,4.816359299999999735e+02
3.250000000000000000e+02,4.822045600000000150e+02
3.260000000000000000e+02,4.827803999999999860e+02
3.270000000000000000e+02,4.833578800000000228e+02
3.280000000000000000e+02,4.839447299999999927e+02
3.290000000000000000e+02,4.845360400000000141e+02
3.300000000000000000e+02,4.851318999999999733e+02
3.310000000000000000e+02,4.857395599999999831e+02
3.320000000000000000e+02,4.863520199999999818e+02
3.330000000000000000e+02,4.869730799999999817e+02
3.340000000000000000e+02,4.876027199999999766e+02
3.350000000000000000e+02,4.882399899999999775e+02
3.360000000000000000e+02,4.888870800000000258e+02
3.370000000000000000e+02,4.895415300000000229e+02
3.380000000000000000e+02,4.902075199999999882e+02
3.390000000000000000e+02,4.908836999999999762e+02
3.400000000000000000e+02,4.915680500000000279e+02
3.410000000000000000e+02,4.922624200000000201e+02
3.420000000000000000e+02,4.929691500000000133e+02
3.430000000000000000e+02,4.936847799999999893e+02
3.440000000000000000e+02,4.944118700000000217e+02
3.450000000000000000e+02,4.951492900000000077e+02
3.460000000000000000e+02,4.958975199999999859e+02
3.470000000000000000e+02,4.966587200000000166e+02
3.480000000000000000e+02,4.974268200000000206e+02
3.490000000000000000e+02,4.982081900000000019e+02
3.500000000000000000e+02,4.990011000000000081e+02
3.510000000000000000e+02,4.998049300000000130e+02
3.520000000000000000e+02,5.006195999999999913e+02
3.530000000000000000e+02,5.014428100000000086e+02
3.540000000000000000e+02,5.022776499999999942e+02
3.550000000000000000e+02,5.031223400000000083e+02
3.560000000000000000e+02,5.039740300000000275e+02
3.570000000000000000e+02,5.048383200000000102e+02
3.580000000000000000e+02,5.057092599999999720e+02
3.590000000000000000e+02,5.065914900000000216e+02
3.600000000000000000e+02,5.074826699999999846e+02
3.610000000000000000e+02,5.083794599999999946e+02
3.620000000000000000e+02,5.092842699999999923e+02
3.630000000000000000e+02,5.101958900000000199e+02
3.640000000000000000e+02,5.111160300000000234e+02
3.650000000000000000e+02,5.120401600000000144e+02
3.660000000000000000e+02,5.129706400000000031e+02
3.670000000000000000e+02,5.139081999999999653e+02
3.680000000000000000e+02,5.148485699999999952e+02
3.690000000000000000e+02,5.157963300000000118e+02
3.700000000000000000e+02,5.167462799999999561e+02
3.710000000000000000e+02,5.176988499999999931e+02
3.720000000000000000e+02,5.186580199999999650e+02
3.730000000000000000e+02,5.196172500000000127e+02
3.740000000000000000e+02,5.205808100000000422e+02
3.750000000000000000e+02,5.215482799999999770e+02
3.760000000000000000e+02,5.225153199999999742e+02
3.770000000000000000e+02,5.234852300000000014e+02
3.780000000000000000e+02,5.244563000000000557e+02
3.790000000000000000e+02,5.254279800000000478e+02
3.800000000000000000e+02,5.263990499999999884e+02
3.810000000000000000e+02,5.273715200000000323e+02
3.820000000000000000e+02,5.283452800000000025e+02
3.830000000000000000e+02,5.293167700000000195e+02
3.840000000000000000e+02,5.302884500000000116e+02
3.850000000000000000e+02,5.312595800000000281e+02
3.860000000000000000e+02,5.322303500000000440e+02
3.870000000000000000e+02,5.331975700000000415e+02
3.880000000000000000e+02,5.341664399999999659e+02
3.890000000000000000e+02,5.351326900000000251e+02
3.900000000000000000e+02,5.360953399999999647e+02
3.910000000000000000e+02,5.370587199999999939e+02
3.920000000000000000e+02,5.380174600000000282e+02
3.930000000000000000e+02,5.389744899999999461e+02
3.940000000000000000e+02,5.399307300000000396e+02
3.950000000000000000e+02,5.408829299999999876e+02
3.960000000000000000e+02,5.418325800000000072e+02
3.970000000000000000e+02,5.427793000000000347e+02
3.980000000000000000e+02,5.437235699999999952e+02
3.990000000000000000e+02,5.446635099999999738e+02
4.000000000000000000e+02,5.456003399999999601e+02
4.010000000000000000e+02,5.465343000000000302e+02
4.020000000000000000e+02,5.474658200000000079e+02
4.030000000000000000e+02,5.483916600000000017e+02
4.040000000000000000e+02,5.493150000000000546e+02
4.050000000000000000e+02,5.502352899999999636e+02
4.060000000000000000e+02,5.511492899999999509e+02
4.070000000000000000e+02,5.520628100000000131e+02
4.080000000000000000e+02,5.529706999999999653e+02
4.090000000000000000e+02,5.538744500000000244e+02
4.100000000000000000e+02,5.547746600000000399e+02
4.110000000000000000e+02,5.556715100000000120e+02
4.120000000000000000e+02,5.565629900000000134e+02
4.130000000000000000e+02,5.574509299999999712e+02
4.140000000000000000e+02,5.583344700000000103e+02
4.150000000000000000e+02,5.592147800000000188e+02
4.160000000000000000e+02,5.600914299999999457e+02
4.170000000000000000e+02,5.609620400000000018e+02
4.180000000000000000e+02,5.618284899999999880e+02
4.190000000000000000e+02,5.626906699999999546e+02
4.200000000000000000e+02,5.635491299999999910e+02
4.210000000000000000e+02,5.644035599999999704e+02
4.220000000000000000e+02,5.652527499999999918e+02
4.230000000000000000e+02,5.660981399999999439e+02
4.240000000000000000e+02,5.669390899999999647e+02
4.250000000000000000e+02,5.677741700000000264e+02
4.260000000000000000e+02,5.686064499999999953e+02
4.270000000000000000e+02,5.694340799999999945e+02
4.280000000000000000e+02,5.702565899999999601e+02
4.290000000000000000e+02,5.710751999999999953e+02
4.300000000000000000e+02,5.718893399999999474e+02
4.310000000000000000e+02,5.726983599999999797e+02
4.320000000000000000e+02,5.735034799999999677e+02
4.330000000000000000e+02,5.743042599999999993e+02
4.340000000000000000e+02,5.751010700000000497e+02
4.350000000000000000e+02,5.758931300000000419e+02
4.360000000000000000e+02,5.766792599999999993e+02
4.370000000000000000e+02,5.774627100000000155e+02
4.380000000000000000e+02,5.782412699999999859e+02
4.390000000000000000e+02,5.790151399999999740e+02
4.400000000000000000e+02,5.797856399999999439e+02
4.410000000000000000e+02,5.805511500000000069e+02
4.420000000000000000e+02,5.813119500000000244e+02
4.430000000000000000e+02,5.820679900000000089e+02
4.440000000000000000e+02,5.828199499999999489e+02
4.450000000000000000e+02,5.835681799999999839e+02
4.460000000000000000e+02,5.843118899999999485e+02
4.470000000000000000e+02,5.850512099999999691e+02
4.480000000000000000e+02,5.857858300000000327e+02
4.490000000000000000e+02,5.865164800000000014e+02
4.500000000000000000e+02,5.872425500000000511e+02
4.510000000000000000e+02,5.879650299999999561e+02
4.520000000000000000e+02,5.886827399999999670e+02
4.530000000000000000e+02,5.893958099999999831e+02
4.540000000000000000e+02,5.901043100000000550e+02
4.550000000000000000e+02,5.908095100000000457e+02
4.560000000000000000e+02,5.915105600000000550e+02
4.570000000000000000e+02,5.922064800000000560e+02
4.580000000000000000e+02,5.928991700000000264e+02
4.590000000000000000e+02,5.935872200000000021e+02
4.600000000000000000e+02,5.942714799999999968e+02
4.610000000000000000e+02,5.949522699999999986e+02
4.620000000000000000e+02,5.956281699999999546e+02
4.630000000000000000e+02,5.962992600000000039e+02
4.640000000000000000e+02,5.969669800000000350e+02
4.650000000000000000e+02,5.976295199999999568e+02
4.660000000000000000e+02,5.982883299999999736e+02
4.670000000000000000e+02,5.989440299999999979e+02
4.680000000000000000e+02,5.995955800000000409e+02
4.690000000000000000e+02,6.002433499999999640e+02
4.700000000000000000e+02,6.008866600000000062e+02
4.710000000000000000e+02,6.015255700000000161e+02
4.720000000000000000e+02,6.021608899999999949e+02
4.730000000000000000e+02,6.027928500000000440e+02
4.740000000000000000e+02,6.034206500000000233e+02
4.750000000000000000e+02,6.040432700000000068e+02
4.760000000000000000e+02,6.046627799999999979e+02
4.770000000000000000e+02,6.052793599999999969e+02
4.780000000000000000e+02,6.058904400000000123e+02
4.790000000000000000e+02,6.064988399999999729e+02
4.800000000000000000e+02,6.071032699999999522e+02
4.810000000000000000e+02,6.077040399999999636e+02
4.820000000000000000e+02,6.083001100000000179e+02
4.830000000000000000e+02,6.088936800000000176e+02
4.840000000000000000e+02,6.094818099999999959e+02
4.850000000000000000e+02,6.100675700000000461e+02
4.860000000000000000e+02,6.106493500000000267e+02
4.870000000000000000e+02,6.112272299999999632e+02
4.880000000000000000e+02,6.118018799999999828e+02
4.890000000000000000e+02,6.123727999999999838e+02
4.900000000000000000e+02,6.129393900000000031e+02
4.910000000000000000e+02,6.135029899999999543e+02
4.920000000000000000e+02,6.140625599999999622e+02
4.930000000000000000e+02,6.146185299999999643e+02
4.940000000000000000e+02,6.151715100000000120e+02
4.950000000000000000e+02,6.157203399999999647e+02
4.960000000000000000e+02,6.162658099999999877e+02
4.970000000000000000e+02,6.168084099999999808e+02
4.980000000000000000e+02,6.173458900000000540e+02
4.990000000000000000e+02,6.178813499999999976e+02
5.000000000000000000e+02,6.184129000000000360e+02
5.010000000000000000e+02,6.189409200000000055e+02
5.020000000000000000e+02,6.194653899999999567e+02
5.030000000000000000e+02,6.199869999999999663e+02
5.040000000000000000e+02,6.205040299999999434e+02
5.050000000000000000e+02,6.210189800000000560e+02
5.060000000000000000e+02,6.215299700000000485e+02
5.070000000000000000e+02,6.220379599999999982e+02
5.080000000000000000e+02,6.225422399999999925e+02
5.090000000000000000e+02,6.230435800000000199e+02
5.100000000000000000e+02,6.235415600000000040e+02
5.110000000000000000e+02,6.240355200000000195e+02
5.120000000000000000e+02,6.245267300000000432e+02
5.130000000000000000e+02,6.250153199999999742e+02
5.140000000000000000e+02,6.254995099999999866e+02
5.150000000000000000e+02,6.259816299999999956e+02
5.160000000000000000e+02,6.264598999999999478e+02
5.170000000000000000e+02,6.269349399999999832e+02
5.180000000000000000e+02,6.274074100000000271e+02
5.190000000000000000e+02,6.278764599999999518e+02
5.200000000000000000e+02,6.283416700000000219e+02
5.210000000000000000e+02,6.288045700000000124e+02
5.220000000000000000e+02,6.292647100000000364e+02
5.230000000000000000e+02,6.297213100000000168e+02
5.240000000000000000e+02,6.301746200000000044e+02
5.250000000000000000e+02,6.306250599999999622e+02
5.260000000000000000e+02,6.310726300000000037e+02
5.270000000000000000e+02,6.315174600000000282e+02
5.280000000000000000e+02,6.319583099999999831e+02
5.290000000000000000e+02,6.323965500000000475e+02
5.300000000000000000e+02,6.328328199999999697e+02
5.310000000000000000e+02,6.332655600000000504e+02
5.320000000000000000e+02,6.336948200000000497e+02
5.330000000000000000e+02,6.341219499999999698e+02
5.340000000000000000e+02,6.345458399999999983e+02
5.350000000000000000e+02,6.349670399999999972e+02
5.360000000000000000e+02,6.353858000000000175e+02
5.370000000000000000e+02,6.358012700000000450e+02
5.380000000000000000e+02,6.362131299999999783e+02
5.390000000000000000e+02,6.366231099999999969e+02
5.400000000000000000e+02,6.370302100000000110e+02
5.410000000000000000e+02,6.374343300000000454e+02
5.420000000000000000e+02,6.378359400000000505e+02
5.430000000000000000e+02,6.382346800000000258e+02
5.440000000000000000e+02,6.386307399999999461e+02
5.450000000000000000e+02,6.390244099999999889e+02
5.460000000000000000e+02,6.394143699999999626e+02
5.470000000000000000e+02,6.398021199999999453e+02
5.480000000000000000e+02,6.401877399999999625e+02
5.490000000000000000e+02,6.405704299999999876e+02
5.500000000000000000e+02,6.409504399999999578e+02
5.510000000000000000e+02,6.413281200000000126e+02
5.520000000000000000e+02,6.417028800000000501e+02
5.530000000000000000e+02,6.420750699999999824e+02
5.540000000000000000e+02,6.424450100000000248e+02
5.550000000000000000e+02,6.428121899999999869e+02
5.560000000000000000e+02,6.431768200000000206e+02
5.570000000000000000e+02,6.435391799999999876e+02
5.580000000000000000e+02,6.438988000000000511e+02
5.590000000000000000e+02,6.442556799999999839e+02
5.600000000000000000e+02,6.446106600000000526e+02
5.610000000000000000e+02,6.449624000000000024e+02
5.620000000000000000e+02,6.453120699999999488e+02
5.630000000000000000e+02,6.456596700000000055e+02
5.640000000000000000e+02,6.460045199999999568e+02
5.650000000000000000e+02,6.463468599999999924e+02
5.660000000000000000e+02,6.466871899999999869e+02
5.670000000000000000e+02,6.470249599999999646e+02
5.680000000000000000e+02,6.473604100000000017e+02
5.690000000000000000e+02,6.476933599999999842e+02
5.700000000000000000e+02,6.480241099999999506e+02
5.710000000000000000e+02,6.483524200000000519e+02
5.720000000000000000e+02,6.486791399999999612e+02
5.730000000000000000e+02,6.490029899999999543e+02
5.740000000000000000e+02,6.493245799999999690e+02
5.750000000000000000e+02,6.496438000000000557e+02
5.760000000000000000e+02,6.499608799999999746e+02
5.770000000000000000e+02,6.502755700000000161e+02
5.780000000000000000e+02,6.505884399999999914e+02
5.790000000000000000e+02,6.508989299999999503e+02
5.800000000000000000e+02,6.512066700000000310e+02
5.810000000000000000e+02,6.515134299999999712e+02
5.820000000000000000e+02,6.518173199999999952e+02
5.830000000000000000e+02,6.521191400000000158e+02
5.840000000000000000e+02,6.524187600000000202e+02
5.850000000000000000e+02,6.527164299999999457e+02
5.860000000000000000e+02,6.530118400000000065e+02
5.870000000000000000e+02,6.533058499999999640e+02
5.880000000000000000e+02,6.535968000000000302e+02
5.890000000000000000e+02,6.538859300000000303e+02
5.900000000000000000e+02,6.541732799999999770e+02
5.910000000000000000e+02,6.544583699999999453e+02
5.920000000000000000e+02,6.547414599999999609e+02
5.930000000000000000e+02,6.550230099999999993e+02
5.940000000000000000e+02,6.553023699999999963e+02
5.950000000000000000e+02,6.555791000000000395e+02
5.960000000000000000e+02,6.558544299999999794e+02
5.970000000000000000e+02,6.561280500000000302e+02
5.980000000000000000e+02,6.563988600000000133e+02
5.990000000000000000e+02,6.566684599999999818e+02