# Time [s], Thickness [m]
1.000000000000000000e+00,8.000000400000000303e-03
2.000000000000000000e+00,8.000000400000000303e-03
3.000000000000000000e+00,8.000000400000000303e-03
4.000000000000000000e+00,8.000000400000000303e-03
5.000000000000000000e+00,8.000000400000000303e-03
6.000000000000000000e+00,8.000000400000000303e-03
7.000000000000000000e+00,8.000000400000000303e-03
8.000000000000000000e+00,8.000000400000000303e-03
9.000000000000000000e+00,8.000000400000000303e-03
1.000000000000000000e+01,8.000000400000000303e-03
1.100000000000000000e+01,8.000000400000000303e-03
1.200000000000000000e+01,8.000000400000000303e-03
1.300000000000000000e+01,8.000000400000000303e-03
1.400000000000000000e+01,8.000000400000000303e-03
1.500000000000000000e+01,8.000000400000000303e-03
1.600000000000000000e+01,8.000000400000000303e-03
1.700000000000000000e+01,8.000000400000000303e-03
1.800000000000000000e+01,8.000000400000000303e-03
1.900000000000000000e+01,8.000000400000000303e-03
2.000000000000000000e+01,8.000000400000000303e-03
2.100000000000000000e+01,8.000000400000000303e-03
2.200000000000000000e+01,8.000000400000000303e-03
2.300000000000000000e+01,8.000000400000000303e-03
2.400000000000000000e+01,8.000000400000000303e-03
2.500000000000000000e+01,8.000000400000000303e-03
2.600000000000000000e+01,8.000000400000000303e-03
2.700000000000000000e+01,8.000000400000000303e-03
2.800000000000000000e+01,8.000000400000000303e-03
2.900000000000000000e+01,8.000000400000000303e-03
3.000000000000000000e+01,8.000000400000000303e-03
3.100000000000000000e+01,8.000000400000000303e-03
3.200000000000000000e+01,8.000000400000000303e-03
3.300000000000000000e+01,8.000000400000000303e-03
3.400000000000000000e+01,8.000000400000000303e-03
3.500000000000000000e+01,8.000000400000000303e-03
3.600000000000000000e+01,8.000000400000000303e-03
3.700000000000000000e+01,8.000000400000000303e-03
3.800000000000000000e+01,8.000000400000000303e-03
3.900000000000000000e+01,8.000000400000000303e-03
4.000000000000000000e+01,8.000000400000000303e-03
4.100000000000000000e+01,8.000000400000000303e-03
4.200000000000000000e+01,8.000000400000000303e-03
4.300000000000000000e+01,8.000000400000000303e-03
4.400000000000000000e+01,8.000000400000000303e-03
4.500000000000000000e+01,8.000000400000000303e-03
4.600000000000000000e+01,8.000000400000000303e-03
4.700000000000000000e+01,8.000000400000000303e-03
4.800000000000000000e+01,8.000000400000000303e-03
4.900000000000000000e+01,8.000000400000000303e-03
5.000000000000000000e+01,8.000000400000000303e-03
5.100000000000000000e+01,8.000000400000000303e-03
5.200000000000000000e+01,8.000000400000000303e-03
5.300000000000000000e+01,8.000000400000000303e-03
5.400000000000000000e+01,8.000000400000000303e-03
5.500000000000000000e+01,8.000000400000000303e-03
5.600000000000000000e+01,8.000000400000000303e-03
5.700000000000000000e+01,8.000000400000000303e-03
5.800000000000000000e+01,8.000000400000000303e-03
5.900000000000000000e+01,8.000000400000000303e-03
6.000000000000000000e+01,8.000000400000000303e-03
6.100000000000000000e+01,8.000000400000000303e-03
6.200000000000000000e+01,8.000000400000000303e-03
6.300000000000000000e+01,8.000000400000000303e-03
6.400000000000000000e+01,8.000000400000000303e-03
6.500000000000000000e+01,8.000000400000000303e-03
6.600000000000000000e+01,8.000000400000000303e-03
6.700000000000000000e+01,8.000000400000000303e-03
6.800000000000000000e+01,8.000000400000000303e-03
6.900000000000000000e+01,8.000000400000000303e-03
7.000000000000000000e+01,8.000000400000000303e-03
7.100000000000000000e+01,8.000000400000000303e-03
7.200000000000000000e+01,8.000000400000000303e-03
7.300000000000000000e+01,8.000000400000000303e-03
7.400000000000000000e+01,8.000000400000000303e-03
7.500000000000000000e+01,8.000000400000000303e-03
7.600000000000000000e+01,8.000000400000000303e-03
7.700000000000000000e+01,8.000000400000000303e-03
7.800000000000000000e+01,8.000000400000000303e-03
7.900000000000000000e+01,8.000000400000000303e-03
8.000000000000000000e+01,8.000000400000000303e-03
8.100000000000000000e+01,8.000000400000000303e-03
8.200000000000000000e+01,8.000000400000000303e-03
8.300000000000000000e+01,8.000000400000000303e-03
8.400000000000000000e+01,8.000000400000000303e-03
8.500000000000000000e+01,8.000000400000000303e-03
8.600000000000000000e+01,8.000000400000000303e-03
8.700000000000000000e+01,8.000000400000000303e-03
8.800000000000000000e+01,8.000000400000000303e-03
8.900000000000000000e+01,8.000000400000000303e-03
9.000000000000000000e+01,8.000000400000000303e-03
9.100000000000000000e+01,8.000000400000000303e-03
9.200000000000000000e+01,8.000000400000000303e-03
9.300000000000000000e+01,8.000000400000000303e-03
9.400000000000000000e+01,8.000000400000000303e-03
9.500000000000000000e+01,8.000000400000000303e-03
9.600000000000000000e+01,8.000000400000000303e-03
9.700000000000000000e+01,8.000000400000000303e-03
9.800000000000000000e+01,8.000000400000000303e-03
9.900000000000000000e+01,8.000000400000000303e-03
1.000000000000000000e+02,8.000000400000000303e-03
1.010000000000000000e+02,8.000000400000000303e-03
1.020000000000000000e+02,8.000000400000000303e-03
1.030000000000000000e+02,8.000000400000000303e-03
1.040000000000000000e+02,8.000000400000000303e-03
1.050000000000000000e+02,8.000000400000000303e-03
1.060000000000000000e+02,8.000000400000000303e-03
1.070000000000000000e+02,8.000000400000000303e-03
1.080000000000000000e+02,8.000000400000000303e-03
1.090000000000000000e+02,8.000000400000000303e-03
1.100000000000000000e+02,8.000000400000000303e-03
1.110000000000000000e+02,8.000000400000000303e-03
1.120000000000000000e+02,8.000000400000000303e-03
1.130000000000000000e+02,8.000000400000000303e-03
1.140000000000000000e+02,8.000000400000000303e-03
1.150000000000000000e+02,8.000000400000000303e-03
1.160000000000000000e+02,8.000000400000000303e-03
1.170000000000000000e+02,8.000000400000000303e-03
1.180000000000000000e+02,8.000000400000000303e-03
1.190000000000000000e+02,8.000000400000000303e-03
1.200000000000000000e+02,8.000000400000000303e-03
1.210000000000000000e+02,8.000000400000000303e-03
1.220000000000000000e+02,8.000000400000000303e-03
1.230000000000000000e+02,8.000000400000000303e-03
1.240000000000000000e+02,8.000000400000000303e-03
1.250000000000000000e+02,8.000000400000000303e-03
1.260000000000000000e+02,8.000000400000000303e-03
1.270000000000000000e+02,8.000000400000000303e-03
1.280000000000000000e+02,8.000000400000000303e-03
1.290000000000000000e+02,8.000000400000000303e-03
1.300000000000000000e+02,8.000000400000000303e-03
1.310000000000000000e+02,8.000000400000000303e-03
1.320000000000000000e+02,8.000000400000000303e-03
1.330000000000000000e+02,8.000000400000000303e-03
1.340000000000000000e+02,8.000000400000000303e-03
1.350000000000000000e+02,8.000000400000000303e-03
1.360000000000000000e+02,8.000000400000000303e-03
1.370000000000000000e+02,8.000000400000000303e-03
1.380000000000000000e+02,8.000000400000000303e-03
1.390000000000000000e+02,8.000000400000000303e-03
1.400000000000000000e+02,8.000000400000000303e-03
1.410000000000000000e+02,8.000000400000000303e-03
1.420000000000000000e+02,8.000000400000000303e-03
1.430000000000000000e+02,8.000000400000000303e-03
1.440000000000000000e+02,8.000000400000000303e-03
1.450000000000000000e+02,8.000000400000000303e-03
1.460000000000000000e+02,8.000000400000000303e-03
1.470000000000000000e+02,8.000000400000000303e-03
1.480000000000000000e+02,8.000000400000000303e-03
1.490000000000000000e+02,8.000000400000000303e-03
1.500000000000000000e+02,8.000000400000000303e-03
1.510000000000000000e+02,8.000000400000000303e-03
1.520000000000000000e+02,8.000000400000000303e-03
1.530000000000000000e+02,8.000000400000000303e-03
1.540000000000000000e+02,8.000000400000000303e-03
1.550000000000000000e+02,8.000000400000000303e-03
1.560000000000000000e+02,8.000000400000000303e-03
1.570000000000000000e+02,8.000000400000000303e-03
1.580000000000000000e+02,8.000000400000000303e-03
1.590000000000000000e+02,8.000000400000000303e-03
1.600000000000000000e+02,8.000000400000000303e-03
1.610000000000000000e+02,8.000000400000000303e-03
1.620000000000000000e+02,8.000000400000000303e-03
1.630000000000000000e+02,8.000000400000000303e-03
1.640000000000000000e+02,8.000000400000000303e-03
1.650000000000000000e+02,8.000000400000000303e-03
1.660000000000000000e+02,8.000000400000000303e-03
1.670000000000000000e+02,8.000000400000000303e-03
1.680000000000000000e+02,8.000000400000000303e-03
1.690000000000000000e+02,8.000000400000000303e-03
1.700000000000000000e+02,8.000000400000000303e-03
1.710000000000000000e+02,8.000000400000000303e-03
1.720000000000000000e+02,8.000000400000000303e-03
1.730000000000000000e+02,8.000000400000000303e-03
1.740000000000000000e+02,8.000000400000000303e-03
1.750000000000000000e+02,8.000000400000000303e-03
1.760000000000000000e+02,8.000000400000000303e-03
1.770000000000000000e+02,8.000000400000000303e-03
1.780000000000000000e+02,8.000000400000000303e-03
1.790000000000000000e+02,8.000000400000000303e-03
1.800000000000000000e+02,8.000000400000000303e-03
1.810000000000000000e+02,8.000000400000000303e-03
1.820000000000000000e+02,8.000000400000000303e-03
1.830000000000000000e+02,8.000000400000000303e-03
1.840000000000000000e+02,8.000000400000000303e-03
1.850000000000000000e+02,8.000000400000000303e-03
1.860000000000000000e+02,8.000000400000000303e-03
1.870000000000000000e+02,8.000000400000000303e-03
1.880000000000000000e+02,8.000000400000000303e-03
1.890000000000000000e+02,8.000000400000000303e-03
1.900000000000000000e+02,7.999999400000000829e-03
1.910000000000000000e+02,7.999999400000000829e-03
1.920000000000000000e+02,7.999999400000000829e-03
1.930000000000000000e+02,7.999999400000000829e-03
1.940000000000000000e+02,7.999999400000000829e-03
1.950000000000000000e+02,7.999999400000000829e-03
1.960000000000000000e+02,7.999999400000000829e-03
1.970000000000000000e+02,7.999999400000000829e-03
1.980000000000000000e+02,7.999999400000000829e-03
1.990000000000000000e+02,7.999999400000000829e-03
2.000000000000000000e+02,7.999999400000000829e-03
2.010000000000000000e+02,7.999999400000000829e-03
2.020000000000000000e+02,7.999999400000000829e-03
2.030000000000000000e+02,7.999999400000000829e-03
2.040000000000000000e+02,7.999999400000000829e-03
2.050000000000000000e+02,7.999999400000000829e-03
2.060000000000000000e+02,7.999999400000000829e-03
2.070000000000000000e+02,7.999999400000000829e-03
2.080000000000000000e+02,7.999999400000000829e-03
2.090000000000000000e+02,7.999999400000000829e-03
2.100000000000000000e+02,7.999999400000000829e-03
2.110000000000000000e+02,7.999999400000000829e-03
2.120000000000000000e+02,7.999999400000000829e-03
2.130000000000000000e+02,7.999999400000000829e-03
2.140000000000000000e+02,7.999999400000000829e-03
2.150000000000000000e+02,7.999999400000000829e-03
2.160000000000000000e+02,7.999999400000000829e-03
2.170000000000000000e+02,7.999999400000000829e-03
2.180000000000000000e+02,7.999999400000000829e-03
2.190000000000000000e+02,7.999999400000000829e-03
2.200000000000000000e+02,7.999999400000000829e-03
2.210000000000000000e+02,7.999999400000000829e-03
2.220000000000000000e+02,7.999999400000000829e-03
2.230000000000000000e+02,7.999999400000000829e-03
2.240000000000000000e+02,7.999999400000000829e-03
2.250000000000000000e+02,7.999999400000000829e-03
2.260000000000000000e+02,7.999999400000000829e-03
2.270000000000000000e+02,7.999999400000000829e-03
2.280000000000000000e+02,7.999999400000000829e-03
2.290000000000000000e+02,7.999999400000000829e-03
2.300000000000000000e+02,7.999999400000000829e-03
2.310000000000000000e+02,7.999999400000000829e-03
2.320000000000000000e+02,7.999999400000000829e-03
2.330000000000000000e+02,7.999999400000000829e-03
2.340000000000000000e+02,7.999999400000000829e-03
2.350000000000000000e+02,7.999999400000000829e-03
2.360000000000000000e+02,7.999999400000000829e-03
2.370000000000000000e+02,7.999999400000000829e-03
2.380000000000000000e+02,7.999999400000000829e-03
2.390000000000000000e+02,7.999999400000000829e-03
2.400000000000000000e+02,7.999999400000000829e-03
2.410000000000000000e+02,7.999999400000000829e-03
2.420000000000000000e+02,7.999999400000000829e-03
2.430000000000000000e+02,7.999999400000000829e-03
2.440000000000000000e+02,7.999999400000000829e-03
2.450000000000000000e+02,7.999999400000000829e-03
2.460000000000000000e+02,7.999999400000000829e-03
2.470000000000000000e+02,7.999999400000000829e-03
2.480000000000000000e+02,7.999999400000000829e-03
2.490000000000000000e+02,7.999999400000000829e-03
2.500000000000000000e+02,7.999999400000000829e-03
2.510000000000000000e+02,7.999999400000000829e-03
2.520000000000000000e+02,7.999999400000000829e-03
2.530000000000000000e+02,7.999999400000000829e-03
2.540000000000000000e+02,7.999999400000000829e-03
2.550000000000000000e+02,7.999998499999999221e-03
2.560000000000000000e+02,7.999998499999999221e-03
2.570000000000000000e+02,7.999998499999999221e-03
2.580000000000000000e+02,7.999998499999999221e-03
2.590000000000000000e+02,7.999998499999999221e-03
2.600000000000000000e+02,7.999998499999999221e-03
2.610000000000000000e+02,7.999998499999999221e-03
2.620000000000000000e+02,7.999998499999999221e-03
2.630000000000000000e+02,7.999998499999999221e-03
2.640000000000000000e+02,7.999998499999999221e-03
2.650000000000000000e+02,7.999998499999999221e-03
2.660000000000000000e+02,7.999998499999999221e-03
2.670000000000000000e+02,7.999998499999999221e-03
2.680000000000000000e+02,7.999998499999999221e-03
2.690000000000000000e+02,7.999998499999999221e-03
2.700000000000000000e+02,7.999998499999999221e-03
2.710000000000000000e+02,7.999998499999999221e-03
2.720000000000000000e+02,7.999998499999999221e-03
2.730000000000000000e+02,7.999998499999999221e-03
2.740000000000000000e+02,7.999997599999999348e-03
2.750000000000000000e+02,7.999997599999999348e-03
2.760000000000000000e+02,7.999997599999999348e-03
2.770000000000000000e+02,7.999997599999999348e-03
2.780000000000000000e+02,7.999997599999999348e-03
2.790000000000000000e+02,7.999997599999999348e-03
2.800000000000000000e+02,7.999997599999999348e-03
2.810000000000000000e+02,7.999997599999999348e-03
2.820000000000000000e+02,7.999997599999999348e-03
2.830000000000000000e+02,7.999997599999999348e-03
2.840000000000000000e+02,7.999997599999999348e-03
2.850000000000000000e+02,7.999997599999999348e-03
2.860000000000000000e+02,7.999996699999999475e-03
2.870000000000000000e+02,7.999996699999999475e-03
2.880000000000000000e+02,7.999996699999999475e-03
2.890000000000000000e+02,7.999996699999999475e-03
2.900000000000000000e+02,7.999996699999999475e-03
2.910000000000000000e+02,7.999996699999999475e-03
2.920000000000000000e+02,7.999996699999999475e-03
2.930000000000000000e+02,7.999996699999999475e-03
2.940000000000000000e+02,7.999996699999999475e-03
2.950000000000000000e+02,7.999995700000000001e-03
2.960000000000000000e+02,7.999995700000000001e-03
2.970000000000000000e+02,7.999995700000000001e-03
2.980000000000000000e+02,7.999995700000000001e-03
2.990000000000000000e+02,7.999995700000000001e-03
3.000000000000000000e+02,7.999995700000000001e-03
3.010000000000000000e+02,7.999995700000000001e-03
3.020000000000000000e+02,7.999994800000000128e-03
3.030000000000000000e+02,7.999994800000000128e-03
3.040000000000000000e+02,7.999994800000000128e-03
3.050000000000000000e+02,7.999994800000000128e-03
3.060000000000000000e+02,7.999994800000000128e-03
3.070000000000000000e+02,7.999994800000000128e-03
3.080000000000000000e+02,7.999993900000000255e-03
3.090000000000000000e+02,7.999993900000000255e-03
3.100000000000000000e+02,7.999993900000000255e-03
3.110000000000000000e+02,7.999993900000000255e-03
3.120000000000000000e+02,7.999993900000000255e-03
3.130000000000000000e+02,7.999992900000000781e-03
3.140000000000000000e+02,7.999992900000000781e-03
3.150000000000000000e+02,7.999992900000000781e-03
3.160000000000000000e+02,7.999992900000000781e-03
3.170000000000000000e+02,7.999992900000000781e-03
3.180000000000000000e+02,7.999991999999999173e-03
3.190000000000000000e+02,7.999991999999999173e-03
3.200000000000000000e+02,7.999991999999999173e-03
3.210000000000000000e+02,7.999991999999999173e-03
3.220000000000000000e+02,7.999991099999999300e-03
3.230000000000000000e+02,7.999991099999999300e-03
3.240000000000000000e+02,7.999991099999999300e-03
3.250000000000000000e+02,7.999991099999999300e-03
3.260000000000000000e+02,7.999990099999999826e-03
3.270000000000000000e+02,7.999990099999999826e-03
3.280000000000000000e+02,7.999990099999999826e-03
3.290000000000000000e+02,7.999989199999999953e-03
3.300000000000000000e+02,7.999989199999999953e-03
3.310000000000000000e+02,7.999989199999999953e-03
3.320000000000000000e+02,7.999988300000000080e-03
3.330000000000000000e+02,7.999988300000000080e-03
3.340000000000000000e+02,7.999988300000000080e-03
3.350000000000000000e+02,7.999987300000000606e-03
3.360000000000000000e+02,7.999987300000000606e-03
3.370000000000000000e+02,7.999986400000000733e-03
3.380000000000000000e+02,7.999986400000000733e-03
3.390000000000000000e+02,7.999986400000000733e-03
3.400000000000000000e+02,7.999985500000000860e-03
3.410000000000000000e+02,7.999985500000000860e-03
3.420000000000000000e+02,7.999984499999999651e-03
3.430000000000000000e+02,7.999984499999999651e-03
3.440000000000000000e+02,7.999983599999999778e-03
3.450000000000000000e+02,7.999983599999999778e-03
3.460000000000000000e+02,7.999983599999999778e-03
3.470000000000000000e+02,7.999982699999999905e-03
3.480000000000000000e+02,7.999982699999999905e-03
3.490000000000000000e+02,7.999981800000000032e-03
3.500000000000000000e+02,7.999980800000000558e-03
3.510000000000000000e+02,7.999980800000000558e-03
3.520000000000000000e+02,7.999979900000000685e-03
3.530000000000000000e+02,7.999979900000000685e-03
3.540000000000000000e+02,7.999979000000000812e-03
3.550000000000000000e+02,7.999979000000000812e-03
3.560000000000000000e+02,7.999977999999999603e-03
3.570000000000000000e+02,7.999977099999999730e-03
3.580000000000000000e+02,7.999977099999999730e-03
3.590000000000000000e+02,7.999976199999999857e-03
3.600000000000000000e+02,7.999975200000000383e-03
3.610000000000000000e+02,7.999975200000000383e-03
3.620000000000000000e+02,7.999974300000000510e-03
3.630000000000000000e+02,7.999973400000000637e-03
3.640000000000000000e+02,7.999973400000000637e-03
3.650000000000000000e+02,7.999972399999999428e-03
3.660000000000000000e+02,7.999971499999999555e-03
3.670000000000000000e+02,7.999970599999999682e-03
3.680000000000000000e+02,7.999969600000000208e-03
3.690000000000000000e+02,7.999969600000000208e-03
3.700000000000000000e+02,7.999968700000000335e-03
3.710000000000000000e+02,7.999967800000000462e-03
3.720000000000000000e+02,7.999966900000000589e-03
3.730000000000000000e+02,7.999965899999999380e-03
3.740000000000000000e+02,7.999964999999999507e-03
3.750000000000000000e+02,7.999964099999999634e-03
3.760000000000000000e+02,7.999963100000000160e-03
3.770000000000000000e+02,7.999962200000000287e-03
3.780000000000000000e+02,7.999961300000000414e-03
3.790000000000000000e+02,7.999960299999999205e-03
3.800000000000000000e+02,7.999959399999999332e-03
3.810000000000000000e+02,7.999958499999999459e-03
3.820000000000000000e+02,7.999957499999999985e-03
3.830000000000000000e+02,7.999956600000000112e-03
3.840000000000000000e+02,7.999955700000000239e-03
3.850000000000000000e+02,7.999953799999999157e-03
3.860000000000000000e+02,7.999952899999999284e-03
3.870000000000000000e+02,7.999951999999999411e-03
3.880000000000000000e+02,7.999950999999999937e-03
3.890000000000000000e+02,7.999949200000000191e-03
3.900000000000000000e+02,7.999948200000000717e-03
3.910000000000000000e+02,7.999947300000000844e-03
3.920000000000000000e+02,7.999945399999999762e-03
3.930000000000000000e+02,7.999944499999999889e-03
3.940000000000000000e+02,7.999942600000000542e-03
3.950000000000000000e+02,7.999941700000000669e-03
3.960000000000000000e+02,7.999939799999999587e-03
3.970000000000000000e+02,7.999938899999999714e-03
3.980000000000000000e+02,7.999937099999999968e-03
3.990000000000000000e+02,7.999936100000000494e-03
4.000000000000000000e+02,7.999934300000000748e-03
4.010000000000000000e+02,7.999932399999999666e-03
4.020000000000000000e+02,7.999931499999999793e-03
4.030000000000000000e+02,7.999929600000000446e-03
4.040000000000000000e+02,7.999927699999999364e-03
4.050000000000000000e+02,7.999925899999999618e-03
4.060000000000000000e+02,7.999924000000000271e-03
4.070000000000000000e+02,7.999922099999999189e-03
4.080000000000000000e+02,7.999920299999999443e-03
4.090000000000000000e+02,7.999918400000000096e-03
4.100000000000000000e+02,7.999916600000000350e-03
4.110000000000000000e+02,7.999914699999999268e-03
4.120000000000000000e+02,7.999912799999999921e-03
4.130000000000000000e+02,7.999911000000000175e-03
4.140000000000000000e+02,7.999909100000000828e-03
4.150000000000000000e+02,7.999907199999999746e-03
4.160000000000000000e+02,7.999904500000000127e-03
4.170000000000000000e+02,7.999902600000000780e-03
4.180000000000000000e+02,7.999899799999999825e-03
4.190000000000000000e+02,7.999897900000000478e-03
4.200000000000000000e+02,7.999896100000000732e-03
4.210000000000000000e+02,7.999893299999999777e-03
4.220000000000000000e+02,7.999890500000000557e-03
4.230000000000000000e+02,7.999888599999999475e-03
4.240000000000000000e+02,7.999885800000000255e-03
4.250000000000000000e+02,7.999882999999999300e-03
4.260000000000000000e+02,7.999880200000000080e-03
4.270000000000000000e+02,7.999878400000000334e-03
4.280000000000000000e+02,7.999875599999999379e-03
4.290000000000000000e+02,7.999872800000000159e-03
4.300000000000000000e+02,7.999869999999999204e-03
4.310000000000000000e+02,7.999867199999999984e-03
4.320000000000000000e+02,7.999863499999999156e-03
4.330000000000000000e+02,7.999860699999999936e-03
4.340000000000000000e+02,7.999857900000000716e-03
4.350000000000000000e+02,7.999854199999999887e-03
4.360000000000000000e+02,7.999851400000000667e-03
4.370000000000000000e+02,7.999848599999999713e-03
4.380000000000000000e+02,7.999844799999999284e-03
4.390000000000000000e+02,7.999841100000000191e-03
4.400000000000000000e+02,7.999838299999999236e-03
4.410000000000000000e+02,7.999834600000000143e-03
4.420000000000000000e+02,7.999830899999999315e-03
4.430000000000000000e+02,7.999827200000000221e-03
4.440000000000000000e+02,7.999823399999999793e-03
4.450000000000000000e+02,7.999819700000000700e-03
4.460000000000000000e+02,7.999815999999999871e-03
4.470000000000000000e+02,7.999812300000000778e-03
4.480000000000000000e+02,7.999807600000000476e-03
4.490000000000000000e+02,7.999803899999999648e-03
4.500000000000000000e+02,7.999800099999999220e-03
4.510000000000000000e+02,7.999795500000000253e-03
4.520000000000000000e+02,7.999790799999999952e-03
4.530000000000000000e+02,7.999787100000000858e-03
4.540000000000000000e+02,7.999782500000000157e-03
4.550000000000000000e+02,7.999777799999999855e-03
4.560000000000000000e+02,7.999773099999999554e-03
4.570000000000000000e+02,7.999768500000000587e-03
4.580000000000000000e+02,7.999763800000000286e-03
4.590000000000000000e+02,7.999758200000000111e-03
4.600000000000000000e+02,7.999753599999999409e-03
4.610000000000000000e+02,7.999748900000000842e-03
4.620000000000000000e+02,7.999743300000000668e-03
4.630000000000000000e+02,7.999737700000000493e-03
4.640000000000000000e+02,7.999733099999999791e-03
4.650000000000000000e+02,7.999727499999999616e-03
4.660000000000000000e+02,7.999721899999999442e-03
4.670000000000000000e+02,7.999716299999999267e-03
4.680000000000000000e+02,7.999709799999999219e-03
4.690000000000000000e+02,7.999704200000000778e-03
4.700000000000000000e+02,7.999698600000000603e-03
4.710000000000000000e+02,7.999692100000000555e-03
4.720000000000000000e+02,7.999686500000000380e-03
4.730000000000000000e+02,7.999680000000000332e-03
4.740000000000000000e+02,7.999673500000000284e-03
4.750000000000000000e+02,7.999667000000000236e-03
4.760000000000000000e+02,7.999660400000000587e-03
4.770000000000000000e+02,7.999653900000000539e-03
4.780000000000000000e+02,7.999646500000000618e-03
4.790000000000000000e+02,7.999640000000000570e-03
4.800000000000000000e+02,7.999632499999999313e-03
4.810000000000000000e+02,7.999625099999999392e-03
4.820000000000000000e+02,7.999617599999999870e-03
4.830000000000000000e+02,7.999610199999999949e-03
4.840000000000000000e+02,7.999602700000000427e-03
4.850000000000000000e+02,7.999595300000000506e-03
4.860000000000000000e+02,7.999586899999999376e-03
4.870000000000000000e+02,7.999579399999999854e-03
4.880000000000000000e+02,7.999571000000000459e-03
4.890000000000000000e+02,7.999562700000000665e-03
4.900000000000000000e+02,7.999554299999999535e-03
4.910000000000000000e+02,7.999545900000000140e-03
4.920000000000000000e+02,7.999536599999999137e-03
4.930000000000000000e+02,7.999528199999999742e-03
4.940000000000000000e+02,7.999518900000000474e-03
4.950000000000000000e+02,7.999509599999999471e-03
4.960000000000000000e+02,7.999500300000000202e-03
4.970000000000000000e+02,7.999490899999999599e-03
4.980000000000000000e+02,7.999481600000000331e-03
4.990000000000000000e+02,7.999471399999999455e-03
5.000000000000000000e+02,7.999462100000000186e-03
5.010000000000000000e+02,7.999451799999999710e-03
5.020000000000000000e+02,7.999441600000000568e-03
5.030000000000000000e+02,7.999430400000000219e-03
5.040000000000000000e+02,7.999420199999999342e-03
5.050000000000000000e+02,7.999409000000000727e-03
5.060000000000000000e+02,7.999398700000000251e-03
5.070000000000000000e+02,7.999387599999999501e-03
5.080000000000000000e+02,7.999376399999999152e-03
5.090000000000000000e+02,7.999364300000000663e-03
5.100000000000000000e+02,7.999353100000000313e-03
5.110000000000000000e+02,7.999341000000000090e-03
5.120000000000000000e+02,7.999328899999999867e-03
5.130000000000000000e+02,7.999316799999999644e-03
5.140000000000000000e+02,7.999303799999999548e-03
5.150000000000000000e+02,7.999291599999999725e-03
5.160000000000000000e+02,7.999278599999999628e-03
5.170000000000000000e+02,7.999265599999999532e-03
5.180000000000000000e+02,7.999252499999999835e-03
5.190000000000000000e+02,7.999238599999999866e-03
5.200000000000000000e+02,7.999224600000000296e-03
5.210000000000000000e+02,7.999211500000000599e-03
5.220000000000000000e+02,7.999196599999999421e-03
5.230000000000000000e+02,7.999182699999999452e-03
5.240000000000000000e+02,7.999167800000000009e-03
5.250000000000000000e+02,7.999152900000000566e-03
5.260000000000000000e+02,7.999137999999999388e-03
5.270000000000000000e+02,7.999123099999999945e-03
5.280000000000000000e+02,7.999107199999999293e-03
5.290000000000000000e+02,7.999091399999999977e-03
5.300000000000000000e+02,7.999075600000000660e-03
5.310000000000000000e+02,7.999059700000000009e-03
5.320000000000000000e+02,7.999043000000000819e-03
5.330000000000000000e+02,7.999026200000000295e-03
5.340000000000000000e+02,7.999009499999999370e-03
5.350000000000000000e+02,7.998992700000000580e-03
5.360000000000000000e+02,7.998975000000000182e-03
5.370000000000000000e+02,7.998957299999999784e-03
5.380000000000000000e+02,7.998939599999999386e-03
5.390000000000000000e+02,7.998921000000000850e-03
5.400000000000000000e+02,7.998902400000000579e-03
5.410000000000000000e+02,7.998883700000000707e-03
5.420000000000000000e+02,7.998864200000000563e-03
5.430000000000000000e+02,7.998845500000000691e-03
5.440000000000000000e+02,7.998825100000000674e-03
5.450000000000000000e+02,7.998805499999999194e-03
5.460000000000000000e+02,7.998784999999999576e-03
5.470000000000000000e+02,7.998764499999999958e-03
5.480000000000000000e+02,7.998744000000000340e-03
5.490000000000000000e+02,7.998722600000000849e-03
5.500000000000000000e+02,7.998701199999999623e-03
5.510000000000000000e+02,7.998679800000000131e-03
5.520000000000000000e+02,7.998657399999999432e-03
5.530000000000000000e+02,7.998635100000000067e-03
5.540000000000000000e+02,7.998612699999999368e-03
5.550000000000000000e+02,7.998589400000000529e-03
5.560000000000000000e+02,7.998566099999999957e-03
5.570000000000000000e+02,7.998542900000000719e-03
5.580000000000000000e+02,7.998518600000000672e-03
5.590000000000000000e+02,7.998494400000000226e-03
5.600000000000000000e+02,7.998469299999999907e-03
5.610000000000000000e+02,7.998444099999999987e-03
5.620000000000000000e+02,7.998418999999999668e-03
5.630000000000000000e+02,7.998393799999999748e-03
5.640000000000000000e+02,7.998367799999999556e-03
5.650000000000000000e+02,7.998340799999999889e-03
5.660000000000000000e+02,7.998313800000000223e-03
5.670000000000000000e+02,7.998286699999999222e-03
5.680000000000000000e+02,7.998259699999999556e-03
5.690000000000000000e+02,7.998231800000000016e-03
5.700000000000000000e+02,7.998202899999999269e-03
5.710000000000000000e+02,7.998174099999999856e-03
5.720000000000000000e+02,7.998145200000000843e-03
5.730000000000000000e+02,7.998115400000000222e-03
5.740000000000000000e+02,7.998085599999999601e-03
5.750000000000000000e+02,7.998055800000000715e-03
5.760000000000000000e+02,7.998025000000000620e-03
5.770000000000000000e+02,7.997993400000000253e-03
5.780000000000000000e+02,7.997961700000000285e-03
5.790000000000000000e+02,7.997930000000000317e-03
5.800000000000000000e+02,7.997897500000000076e-03
5.810000000000000000e+02,7.997864900000000235e-03
5.820000000000000000e+02,7.997831299999999186e-03
5.830000000000000000e+02,7.997797799999999471e-03
5.840000000000000000e+02,7.997764299999999757e-03
5.850000000000000000e+02,7.997728900000000696e-03
5.860000000000000000e+02,7.997694399999999773e-03
5.870000000000000000e+02,7.997659000000000712e-03
5.880000000000000000e+02,7.997622700000000043e-03
5.890000000000000000e+02,7.997586399999999374e-03
5.900000000000000000e+02,7.997549099999999231e-03
5.910000000000000000e+02,7.997511900000000423e-03
5.920000000000000000e+02,7.997473700000000407e-03
5.930000000000000000e+02,7.997435500000000391e-03
5.940000000000000000e+02,7.997396400000000502e-03
5.950000000000000000e+02,7.997357300000000613e-03
5.960000000000000000e+02,7.997317199999999515e-03
5.970000000000000000e+02,7.997277199999999753e-03
5.980000000000000000e+02,7.997236200000000517e-03
5.990000000000000000e+02,7.997195199999999546e-03