# Time [s], Convective Heat Transfer Coefficient [W/m2K]
1.000000000000000000e+00,0.000000000000000000e+00
2.000000000000000000e+00,0.000000000000000000e+00
3.000000000000000000e+00,0.000000000000000000e+00
4.000000000000000000e+00,1.915079995362458862e-02
5.000000000000000000e+00,3.274740728807139234e-02
6.000000000000000000e+00,5.709554346458797780e-02
7.000000000000000000e+00,9.353243230388628981e-02
8.000000000000000000e+00,1.426166629819179410e-01
9.000000000000000000e+00,2.049947650774812391e-01
1.000000000000000000e+01,2.807904434752760969e-01
1.100000000000000000e+01,3.695580420002490540e-01
1.200000000000000000e+01,4.702437770832555430e-01
1.300000000000000000e+01,5.815760755099327328e-01
1.400000000000000000e+01,7.021019904574713477e-01
1.500000000000000000e+01,8.303729647681579173e-01
1.600000000000000000e+01,9.650015836175442896e-01
1.700000000000000000e+01,1.104705734856393340e+00
1.800000000000000000e+01,1.248341807646787371e+00
1.900000000000000000e+01,1.394889905009329745e+00
2.000000000000000000e+01,1.543469850758764528e+00
2.100000000000000000e+01,1.693307131836434332e+00
2.200000000000000000e+01,1.843726736173592728e+00
2.300000000000000000e+01,1.994147475258151392e+00
2.400000000000000000e+01,2.144077088488332894e+00
2.500000000000000000e+01,2.293097945313558927e+00
2.600000000000000000e+01,2.440855952130768891e+00
2.700000000000000000e+01,2.587064065360138887e+00
2.800000000000000000e+01,2.731489646863774823e+00
2.900000000000000000e+01,2.873952554904200429e+00
3.000000000000000000e+01,3.014320266893742772e+00
3.100000000000000000e+01,3.152486687575530411e+00
3.200000000000000000e+01,3.288382282248986321e+00
3.300000000000000000e+01,3.421960888989024507e+00
3.400000000000000000e+01,3.553197423710118041e+00
3.500000000000000000e+01,3.682089106786706090e+00
3.600000000000000000e+01,3.808636735074078850e+00
3.700000000000000000e+01,3.932856981395713269e+00
3.800000000000000000e+01,4.054774424806740996e+00
3.900000000000000000e+01,4.174544264310785735e+00
4.000000000000000000e+01,4.292028924263679102e+00
4.100000000000000000e+01,4.407307185605332300e+00
4.200000000000000000e+01,4.520435808596309890e+00
4.300000000000000000e+01,4.631462766467341119e+00
4.400000000000000000e+01,4.740438395393285376e+00
4.500000000000000000e+01,4.847421175478151767e+00
4.600000000000000000e+01,4.952470412566258418e+00
4.700000000000000000e+01,5.055640867850900833e+00
4.800000000000000000e+01,5.156996913123044202e+00
4.900000000000000000e+01,5.256592071291250612e+00
5.000000000000000000e+01,5.354478390076568672e+00
5.100000000000000000e+01,5.450704592153466699e+00
5.200000000000000000e+01,5.545316649209121707e+00
5.300000000000000000e+01,5.638355950713919817e+00
5.400000000000000000e+01,5.729862835711711178e+00
5.500000000000000000e+01,5.819877558087736880e+00
5.600000000000000000e+01,5.908432847789781839e+00
5.700000000000000000e+01,5.995568552120944972e+00
5.800000000000000000e+01,6.081313534534447562e+00
5.900000000000000000e+01,6.165704538524935607e+00
6.000000000000000000e+01,6.248773254567742796e+00
6.100000000000000000e+01,6.330549241220785106e+00
6.200000000000000000e+01,6.411061017615576674e+00
6.300000000000000000e+01,6.490336835909745083e+00
6.400000000000000000e+01,6.568403315366580841e+00
6.500000000000000000e+01,6.645285808718166543e+00
6.600000000000000000e+01,6.721009863501159920e+00
6.700000000000000000e+01,6.795675676304536061e+00
6.800000000000000000e+01,6.869187132858993294e+00
6.900000000000000000e+01,6.941601876883307654e+00
7.000000000000000000e+01,7.012953752641270633e+00
7.100000000000000000e+01,7.083266821991745843e+00
7.200000000000000000e+01,7.152572308166971204e+00
7.300000000000000000e+01,7.220892858001623615e+00
7.400000000000000000e+01,7.288254558117578163e+00
7.500000000000000000e+01,7.354675139359049041e+00
7.600000000000000000e+01,7.420175543400353568e+00
7.700000000000000000e+01,7.484769810305639481e+00
7.800000000000000000e+01,7.548470373059701366e+00
7.900000000000000000e+01,7.611295449230458310e+00
8.000000000000000000e+01,7.673258222824966168e+00
8.100000000000000000e+01,7.734371537862973156e+00
8.200000000000000000e+01,7.794646179831048904e+00
8.300000000000000000e+01,7.854096903996746093e+00
8.400000000000000000e+01,7.912735027432833412e+00
8.500000000000000000e+01,7.970572173079978562e+00
8.600000000000000000e+01,8.027616425915496734e+00
8.700000000000000000e+01,8.083880991248856063e+00
8.800000000000000000e+01,8.139376593658498749e+00
8.900000000000000000e+01,8.194113556950012978e+00
9.000000000000000000e+01,8.248101825846623214e+00
9.100000000000000000e+01,8.301349797076557735e+00
9.200000000000000000e+01,8.353869612573200598e+00
9.300000000000000000e+01,8.405669800723359231e+00
9.400000000000000000e+01,8.456757621454665141e+00
9.500000000000000000e+01,8.507140270195217013e+00
9.600000000000000000e+01,8.556827595661617991e+00
9.700000000000000000e+01,8.605824042760501058e+00
9.800000000000000000e+01,8.654163808011002601e+00
9.900000000000000000e+01,8.701812588909561441e+00
1.000000000000000000e+02,8.748791943261364779e+00
1.010000000000000000e+02,8.795119717057024999e+00
1.020000000000000000e+02,8.840817436493951575e+00
1.030000000000000000e+02,8.885896194351383670e+00
1.040000000000000000e+02,8.930355418598800554e+00
1.050000000000000000e+02,8.974190130208414828e+00
1.060000000000000000e+02,9.017391578909968786e+00
1.070000000000000000e+02,9.059953256285917078e+00
1.080000000000000000e+02,9.101870778239527837e+00
1.090000000000000000e+02,9.143137435880465347e+00
1.100000000000000000e+02,9.183748867790505699e+00
1.110000000000000000e+02,9.223701844865850319e+00
1.120000000000000000e+02,9.262989846076566280e+00
1.130000000000000000e+02,9.301607515042691787e+00
1.140000000000000000e+02,9.339548721035232148e+00
1.150000000000000000e+02,9.376804580863243643e+00
1.160000000000000000e+02,9.413364741824132409e+00
1.170000000000000000e+02,9.449217552426276256e+00
1.180000000000000000e+02,9.484348270453963892e+00
1.190000000000000000e+02,9.518741350762148556e+00
1.200000000000000000e+02,9.552380962184876978e+00
1.210000000000000000e+02,9.585246894011968166e+00
1.220000000000000000e+02,9.617320496341019265e+00
1.230000000000000000e+02,9.648579565505782440e+00
1.240000000000000000e+02,9.679001671256731498e+00
1.250000000000000000e+02,9.708691793428823047e+00
1.260000000000000000e+02,9.737499626615887749e+00
1.270000000000000000e+02,9.765471641639997813e+00
1.280000000000000000e+02,9.792594424200625980e+00
1.290000000000000000e+02,9.818815889788401918e+00
1.300000000000000000e+02,9.844080193566014714e+00
1.310000000000000000e+02,9.868351406134918236e+00
1.320000000000000000e+02,9.891614371429517050e+00
1.330000000000000000e+02,9.913868091298345675e+00
1.340000000000000000e+02,9.935116729481579867e+00
1.350000000000000000e+02,9.955373986238988948e+00
1.360000000000000000e+02,9.974657150665088068e+00
1.370000000000000000e+02,9.992991626539717842e+00
1.380000000000000000e+02,1.001041011700136707e+01
1.390000000000000000e+02,1.002695056570652454e+01
1.400000000000000000e+02,1.004265717178032702e+01
1.410000000000000000e+02,1.005758197615647198e+01
1.420000000000000000e+02,1.007178123962247440e+01
1.430000000000000000e+02,1.008531327249784404e+01
1.440000000000000000e+02,1.009824100706107508e+01
1.450000000000000000e+02,1.011062788816831315e+01
1.460000000000000000e+02,1.012253759218996763e+01
1.470000000000000000e+02,1.013507567995564607e+01
1.480000000000000000e+02,1.014692184360682070e+01
1.490000000000000000e+02,1.015832285694783899e+01
1.500000000000000000e+02,1.016934167398970246e+01
1.510000000000000000e+02,1.018003383687904950e+01
1.520000000000000000e+02,1.019049211951292655e+01
1.530000000000000000e+02,1.020080433479774662e+01
1.540000000000000000e+02,1.021103792292255363e+01
1.550000000000000000e+02,1.022124308431917683e+01
1.560000000000000000e+02,1.023146100804529368e+01
1.570000000000000000e+02,1.024172630511424309e+01
1.580000000000000000e+02,1.025206773964374030e+01
1.590000000000000000e+02,1.026251339613054014e+01
1.600000000000000000e+02,1.027308713135971274e+01
1.610000000000000000e+02,1.028381381377195680e+01
1.620000000000000000e+02,1.029471300985075466e+01
1.630000000000000000e+02,1.030580641708821510e+01
1.640000000000000000e+02,1.031711497386418053e+01
1.650000000000000000e+02,1.032865425007929439e+01
1.660000000000000000e+02,1.034044686970385385e+01
1.670000000000000000e+02,1.035250898637423944e+01
1.680000000000000000e+02,1.036486026385461123e+01
1.690000000000000000e+02,1.038201741471027439e+01
1.700000000000000000e+02,1.039624123052862892e+01
1.710000000000000000e+02,1.040983061841412827e+01
1.720000000000000000e+02,1.042363942610601057e+01
1.730000000000000000e+02,1.043774656065490980e+01
1.740000000000000000e+02,1.045233846439211334e+01
1.750000000000000000e+02,1.046742396201144842e+01
1.760000000000000000e+02,1.048304337095150096e+01
1.770000000000000000e+02,1.049922659225069133e+01
1.780000000000000000e+02,1.051600794502856395e+01
1.790000000000000000e+02,1.053343681934298459e+01
1.800000000000000000e+02,1.055155235065113750e+01
1.810000000000000000e+02,1.057041737507127799e+01
1.820000000000000000e+02,1.059009048184361923e+01
1.830000000000000000e+02,1.061064055278148288e+01
1.840000000000000000e+02,1.063214283054857034e+01
1.850000000000000000e+02,1.065468773167165750e+01
1.860000000000000000e+02,1.067836526926842566e+01
1.870000000000000000e+02,1.070328877524331190e+01
1.880000000000000000e+02,1.072957540697474421e+01
1.890000000000000000e+02,1.075735091170727742e+01
1.900000000000000000e+02,1.078676968270126579e+01
1.910000000000000000e+02,1.081798103372309683e+01
1.920000000000000000e+02,1.085116381739631919e+01
1.930000000000000000e+02,1.088649725213899977e+01
1.940000000000000000e+02,1.092417292329829159e+01
1.950000000000000000e+02,1.096437239251172713e+01
1.960000000000000000e+02,1.101766761070355294e+01
1.970000000000000000e+02,1.106721070825428299e+01
1.980000000000000000e+02,1.111513796899867756e+01
1.990000000000000000e+02,1.116704217860543658e+01
2.000000000000000000e+02,1.122211091312658482e+01
2.010000000000000000e+02,1.128071116703293519e+01
2.020000000000000000e+02,1.134289170454402473e+01
2.030000000000000000e+02,1.140858614783637570e+01
2.040000000000000000e+02,1.147725300822268935e+01
2.050000000000000000e+02,1.154764010910746563e+01
2.060000000000000000e+02,1.161777790298124202e+01
2.070000000000000000e+02,1.168562974579445601e+01
2.080000000000000000e+02,1.174983990178403559e+01
2.090000000000000000e+02,1.181001207060449154e+01
2.100000000000000000e+02,1.186640094081190888e+01
2.110000000000000000e+02,1.191947565127976638e+01
2.120000000000000000e+02,1.196968637162641969e+01
2.130000000000000000e+02,1.201742458955215653e+01
2.140000000000000000e+02,1.206305206814895392e+01
2.150000000000000000e+02,1.210682510018838087e+01
2.160000000000000000e+02,1.214893827373756885e+01
2.170000000000000000e+02,1.218955614832771239e+01
2.180000000000000000e+02,1.222880399899103487e+01
2.190000000000000000e+02,1.226679915148865874e+01
2.200000000000000000e+02,1.230362786004484654e+01
2.210000000000000000e+02,1.233938207251467389e+01
2.220000000000000000e+02,1.237412446385788556e+01
2.230000000000000000e+02,1.240792616250007008e+01
2.240000000000000000e+02,1.244083801961181734e+01
2.250000000000000000e+02,1.247290889935376157e+01
2.260000000000000000e+02,1.250418234264289730e+01
2.270000000000000000e+02,1.253470315676768365e+01
2.280000000000000000e+02,1.256449904031187081e+01
2.290000000000000000e+02,1.259361098804175150e+01
2.300000000000000000e+02,1.262206921025135387e+01
2.310000000000000000e+02,1.264989560050412543e+01
2.320000000000000000e+02,1.267711333544151131e+01
2.330000000000000000e+02,1.270375252280549283e+01
2.340000000000000000e+02,1.272982977849166453e+01
2.350000000000000000e+02,1.275536470726493476e+01
2.360000000000000000e+02,1.278037519741278949e+01
2.370000000000000000e+02,1.280487682436174168e+01
2.380000000000000000e+02,1.282888959155179798e+01
2.390000000000000000e+02,1.285242481987365970e+01
2.400000000000000000e+02,1.287549929685660111e+01
2.410000000000000000e+02,1.289812195880500845e+01
2.420000000000000000e+02,1.292030904174272088e+01
2.430000000000000000e+02,1.294207040533623676e+01
2.440000000000000000e+02,1.296341828440531430e+01
2.450000000000000000e+02,1.298436343693217765e+01
2.460000000000000000e+02,1.300491378944854226e+01
2.470000000000000000e+02,1.302508235223119470e+01
2.480000000000000000e+02,1.304487455731743140e+01
2.490000000000000000e+02,1.306430134026530787e+01
2.500000000000000000e+02,1.308337208695048659e+01
2.510000000000000000e+02,1.310209397885252258e+01
2.520000000000000000e+02,1.312047440812816568e+01
2.530000000000000000e+02,1.313852504661343445e+01
2.540000000000000000e+02,1.315624752121024343e+01
2.550000000000000000e+02,1.317365027968528501e+01
2.560000000000000000e+02,1.319074392792223094e+01
2.570000000000000000e+02,1.320753254916706432e+01
2.580000000000000000e+02,1.322401954636649180e+01
2.590000000000000000e+02,1.324021613248612361e+01
2.600000000000000000e+02,1.325612631612239767e+01
2.610000000000000000e+02,1.327175629480793440e+01
2.620000000000000000e+02,1.328711164628674624e+01
2.630000000000000000e+02,1.330220057933424194e+01
2.640000000000000000e+02,1.331702407125587406e+01
2.650000000000000000e+02,1.333158872724906452e+01
2.660000000000000000e+02,1.334590146249906795e+01
2.670000000000000000e+02,1.335996497581504983e+01
2.680000000000000000e+02,1.337378682735818103e+01
2.690000000000000000e+02,1.338737004996738911e+01
2.700000000000000000e+02,1.340071854187352685e+01
2.710000000000000000e+02,1.341383914099005636e+01
2.720000000000000000e+02,1.342673477982929420e+01
2.730000000000000000e+02,1.343940990368346000e+01
2.740000000000000000e+02,1.345186845201032000e+01
2.750000000000000000e+02,1.346411638265514021e+01
2.760000000000000000e+02,1.347615559585533518e+01
2.770000000000000000e+02,1.348799066336368568e+01
2.780000000000000000e+02,1.349962591536876033e+01
2.790000000000000000e+02,1.351106422536970619e+01
2.800000000000000000e+02,1.352230964818273229e+01
2.810000000000000000e+02,1.353336562141117305e+01
2.820000000000000000e+02,1.354423560953202710e+01
2.830000000000000000e+02,1.355492456988118199e+01
2.840000000000000000e+02,1.356543429821773472e+01
2.850000000000000000e+02,1.357576732842459855e+01
2.860000000000000000e+02,1.358592870316543433e+01
2.870000000000000000e+02,1.359592063651806271e+01
2.880000000000000000e+02,1.360574620323846240e+01
2.890000000000000000e+02,1.361540964886404126e+01
2.900000000000000000e+02,1.362491158978926009e+01
2.910000000000000000e+02,1.363425615486810472e+01
2.920000000000000000e+02,1.364344586801716908e+01
2.930000000000000000e+02,1.365248530232353552e+01
2.940000000000000000e+02,1.366137454412357854e+01
2.950000000000000000e+02,1.367011724077842594e+01
2.960000000000000000e+02,1.367871669937230905e+01
2.970000000000000000e+02,1.368717532715324836e+01
2.980000000000000000e+02,1.369549357665786538e+01
2.990000000000000000e+02,1.370367693939844322e+01
3.000000000000000000e+02,1.371172589212992854e+01
3.010000000000000000e+02,1.371964245678874583e+01
3.020000000000000000e+02,1.372743044027922465e+01
3.030000000000000000e+02,1.373509182593383571e+01
3.040000000000000000e+02,1.374262814778802344e+01
3.050000000000000000e+02,1.375004204122730300e+01
3.060000000000000000e+02,1.375733513449420009e+01
3.070000000000000000e+02,1.376451003151013808e+01
3.080000000000000000e+02,1.377156814685048758e+01
3.090000000000000000e+02,1.377851180859549274e+01
3.100000000000000000e+02,1.378534283724133402e+01
3.110000000000000000e+02,1.379206414854522045e+01
3.120000000000000000e+02,1.379867655158434303e+01
3.130000000000000000e+02,1.380518207591145874e+01
3.140000000000000000e+02,1.381158298416813857e+01
3.150000000000000000e+02,1.381788072905405507e+01
3.160000000000000000e+02,1.382407656981872712e+01
3.170000000000000000e+02,1.383017353172550123e+01
3.180000000000000000e+02,1.383617181251547912e+01
3.190000000000000000e+02,1.384207466000885667e+01
3.200000000000000000e+02,1.384788158345602760e+01
3.210000000000000000e+02,1.385359648153132994e+01
3.220000000000000000e+02,1.385921927511242480e+01
3.230000000000000000e+02,1.386475207409099397e+01
3.240000000000000000e+02,1.387019685655422485e+01
3.250000000000000000e+02,1.387555461834026183e+01
3.260000000000000000e+02,1.388082665284968797e+01
3.270000000000000000e+02,1.388601503572225226e+01
3.280000000000000000e+02,1.389111989220644183e+01
3.290000000000000000e+02,1.389614370851479741e+01
3.300000000000000000e+02,1.390108774936308755e+01
3.310000000000000000e+02,1.390595327322222730e+01
3.320000000000000000e+02,1.391074116951433126e+01
3.330000000000000000e+02,1.391545341085705623e+01
3.340000000000000000e+02,1.392009021016977321e+01
3.350000000000000000e+02,1.392465395086962943e+01
3.360000000000000000e+02,1.392914507719695472e+01
3.370000000000000000e+02,1.393356523597129026e+01
3.380000000000000000e+02,1.393791564591806065e+01
3.390000000000000000e+02,1.394219721958390856e+01
3.400000000000000000e+02,1.394641038382335552e+01
3.410000000000000000e+02,1.395055748727568457e+01
3.420000000000000000e+02,1.395463900763085263e+01
3.430000000000000000e+02,1.395865614062108051e+01
3.440000000000000000e+02,1.396260947704102762e+01
3.450000000000000000e+02,1.396650116495069049e+01
3.460000000000000000e+02,1.397033106682880010e+01
3.470000000000000000e+02,1.397410030274697590e+01
3.480000000000000000e+02,1.397781082761868277e+01
3.490000000000000000e+02,1.398146237507316414e+01
3.500000000000000000e+02,1.398505719165579997e+01
3.510000000000000000e+02,1.398859470628852719e+01
3.520000000000000000e+02,1.399207715793220608e+01
3.530000000000000000e+02,1.399550456856885994e+01
3.540000000000000000e+02,1.399887857170297423e+01
3.550000000000000000e+02,1.400219954265949873e+01
3.560000000000000000e+02,1.400546833230210453e+01
3.570000000000000000e+02,1.400868602736541746e+01
3.580000000000000000e+02,1.401185281713363473e+01
3.590000000000000000e+02,1.401497049859090893e+01
3.600000000000000000e+02,1.401803913693866122e+01
3.610000000000000000e+02,1.402106034444217109e+01
3.620000000000000000e+02,1.402403334882833974e+01
3.630000000000000000e+02,1.402696041243535063e+01
3.640000000000000000e+02,1.402984159249857932e+01
3.650000000000000000e+02,1.403267771809078468e+01
3.660000000000000000e+02,1.403546955666615759e+01
3.670000000000000000e+02,1.403821787363200890e+01
3.680000000000000000e+02,1.404092301676031340e+01
3.690000000000000000e+02,1.404358622282368430e+01
3.700000000000000000e+02,1.404620783598715761e+01
3.710000000000000000e+02,1.404878867366137207e+01
3.720000000000000000e+02,1.405132913633028657e+01
3.730000000000000000e+02,1.405383027516244887e+01
3.740000000000000000e+02,1.405629189498251996e+01
3.750000000000000000e+02,1.405871539936277514e+01
3.760000000000000000e+02,1.406110118280566468e+01
3.770000000000000000e+02,1.406345005298902251e+01
3.780000000000000000e+02,1.406576198759048246e+01
3.790000000000000000e+02,1.406803820586264564e+01
3.800000000000000000e+02,1.407027903799346014e+01
3.810000000000000000e+02,1.407248558166657837e+01
3.820000000000000000e+02,1.407465751446307323e+01
3.830000000000000000e+02,1.407679563628499331e+01
3.840000000000000000e+02,1.407890027312083348e+01
3.850000000000000000e+02,1.408097257665376212e+01
3.860000000000000000e+02,1.408301257533467599e+01
3.870000000000000000e+02,1.408502065117976443e+01
3.880000000000000000e+02,1.408699795220000617e+01
3.890000000000000000e+02,1.408894444525357237e+01
3.900000000000000000e+02,1.409086121701932370e+01
3.910000000000000000e+02,1.409274799697056579e+01
3.920000000000000000e+02,1.409460510375184583e+01
3.930000000000000000e+02,1.409643373895495166e+01
3.940000000000000000e+02,1.409823416025268372e+01
3.950000000000000000e+02,1.410000680136083240e+01
3.960000000000000000e+02,1.410175174203771853e+01
3.970000000000000000e+02,1.410346965015598641e+01
3.980000000000000000e+02,1.410516095727708041e+01
3.990000000000000000e+02,1.410682632954310911e+01
4.000000000000000000e+02,1.410846578527262452e+01
4.010000000000000000e+02,1.411008016563503986e+01
4.020000000000000000e+02,1.411166942901381205e+01
4.030000000000000000e+02,1.411323388618654207e+01
4.040000000000000000e+02,1.411477472875440853e+01
4.050000000000000000e+02,1.411629114971887766e+01
4.060000000000000000e+02,1.411778439815822495e+01
4.070000000000000000e+02,1.411925466490100867e+01
4.080000000000000000e+02,1.412070208168634267e+01
4.090000000000000000e+02,1.412212736688666936e+01
4.100000000000000000e+02,1.412353053387147561e+01
4.110000000000000000e+02,1.412491188915925910e+01
4.120000000000000000e+02,1.412627220812069240e+01
4.130000000000000000e+02,1.412761150288207901e+01
4.140000000000000000e+02,1.412892984401467800e+01
4.150000000000000000e+02,1.413022818128486158e+01
4.160000000000000000e+02,1.413150629122350743e+01
4.170000000000000000e+02,1.413276482946947255e+01
4.180000000000000000e+02,1.413400386505527351e+01
4.190000000000000000e+02,1.413522370115461690e+01
4.200000000000000000e+02,1.413642510919506279e+01
4.210000000000000000e+02,1.413760768858072048e+01
4.220000000000000000e+02,1.413877220999676076e+01
4.230000000000000000e+02,1.413991868234949401e+01
4.240000000000000000e+02,1.414104746563751114e+01
4.250000000000000000e+02,1.414215891949639214e+01
4.260000000000000000e+02,1.414325346172867626e+01
4.270000000000000000e+02,1.414433098314853687e+01
4.280000000000000000e+02,1.414539190104425437e+01
4.290000000000000000e+02,1.414643663233603732e+01
4.300000000000000000e+02,1.414746512569754344e+01
4.310000000000000000e+02,1.414847779754312818e+01
4.320000000000000000e+02,1.414947494700289177e+01
4.330000000000000000e+02,1.415045698985841227e+01
4.340000000000000000e+02,1.415142358166957770e+01
4.350000000000000000e+02,1.415237537165862669e+01
4.360000000000000000e+02,1.415331277485285177e+01
4.370000000000000000e+02,1.415423544637965847e+01
4.380000000000000000e+02,1.415514403464084658e+01
4.390000000000000000e+02,1.415603866188235749e+01
4.400000000000000000e+02,1.415691962542980242e+01
4.410000000000000000e+02,1.415778693037719371e+01
4.420000000000000000e+02,1.415864093210012520e+01
4.430000000000000000e+02,1.415948198572699290e+01
4.440000000000000000e+02,1.416031015424576189e+01
4.450000000000000000e+02,1.416112538379838170e+01
4.460000000000000000e+02,1.416192802904792813e+01
4.470000000000000000e+02,1.416271885294975341e+01
4.480000000000000000e+02,1.416349675073832515e+01
4.490000000000000000e+02,1.416426312700582990e+01
4.500000000000000000e+02,1.416501810216997193e+01
4.510000000000000000e+02,1.416576086318107208e+01
4.520000000000000000e+02,1.416649252212899945e+01
4.530000000000000000e+02,1.416721302412664230e+01
4.540000000000000000e+02,1.416792208098795491e+01
4.550000000000000000e+02,1.416862074575313279e+01
4.560000000000000000e+02,1.416930832182275424e+01
4.570000000000000000e+02,1.416998551202521028e+01
4.580000000000000000e+02,1.417065231933512237e+01
4.590000000000000000e+02,1.417130915470642627e+01
4.600000000000000000e+02,1.417195555463653101e+01
4.610000000000000000e+02,1.417259192993019568e+01
4.620000000000000000e+02,1.417321898256960999e+01
4.630000000000000000e+02,1.417383607407202817e+01
4.640000000000000000e+02,1.417444384793675383e+01
4.650000000000000000e+02,1.417504230655843855e+01
4.660000000000000000e+02,1.417563151054824822e+01
4.670000000000000000e+02,1.417621169520825219e+01
4.680000000000000000e+02,1.417678303748424895e+01
4.690000000000000000e+02,1.417734577247140848e+01
4.700000000000000000e+02,1.417789955280631631e+01
4.710000000000000000e+02,1.417844513758529423e+01
4.720000000000000000e+02,1.417898212111444955e+01
4.730000000000000000e+02,1.417951126223233516e+01
4.740000000000000000e+02,1.418003186408081007e+01
4.750000000000000000e+02,1.418054456888784998e+01
4.760000000000000000e+02,1.418104984403989732e+01
4.770000000000000000e+02,1.418154681804486827e+01
4.780000000000000000e+02,1.418203636566562764e+01
4.790000000000000000e+02,1.418251877942544148e+01
4.800000000000000000e+02,1.418299330426488325e+01
4.810000000000000000e+02,1.418346069823075872e+01
4.820000000000000000e+02,1.418392096273186276e+01
4.830000000000000000e+02,1.418437409915520497e+01
4.840000000000000000e+02,1.418482051611489680e+01
4.850000000000000000e+02,1.418526009852918790e+01
4.860000000000000000e+02,1.418569290583914366e+01
4.870000000000000000e+02,1.418611893928412115e+01
4.880000000000000000e+02,1.418653854906974843e+01
4.890000000000000000e+02,1.418695179449613342e+01
4.900000000000000000e+02,1.418735861851721047e+01
4.910000000000000000e+02,1.418775931300857707e+01
4.920000000000000000e+02,1.418815364640389731e+01
4.930000000000000000e+02,1.418854196865062001e+01
4.940000000000000000e+02,1.418892451331422677e+01
4.950000000000000000e+02,1.418930104876203302e+01
4.960000000000000000e+02,1.418967221547516822e+01
4.970000000000000000e+02,1.419003737480369942e+01
4.980000000000000000e+02,1.419039681833809396e+01
4.990000000000000000e+02,1.419075089572526593e+01
5.000000000000000000e+02,1.419109966589502392e+01
5.010000000000000000e+02,1.419144307150537365e+01
5.020000000000000000e+02,1.419178117145608908e+01
5.030000000000000000e+02,1.419211425709826457e+01
5.040000000000000000e+02,1.419244203855791397e+01
5.050000000000000000e+02,1.419276480713614319e+01
5.060000000000000000e+02,1.419308297029142096e+01
5.070000000000000000e+02,1.419339577323721002e+01
5.080000000000000000e+02,1.419370432068846988e+01
5.090000000000000000e+02,1.419400750924074472e+01
5.100000000000000000e+02,1.419430650159404905e+01
5.110000000000000000e+02,1.419460083349235191e+01
5.120000000000000000e+02,1.419489085409052542e+01
5.130000000000000000e+02,1.419517598298129712e+01
5.140000000000000000e+02,1.419545715021405563e+01
5.150000000000000000e+02,1.419573400772544503e+01
5.160000000000000000e+02,1.419600632367251869e+01
5.170000000000000000e+02,1.419627467942340893e+01
5.180000000000000000e+02,1.419653878501506661e+01
5.190000000000000000e+02,1.419679898940333551e+01
5.200000000000000000e+02,1.419705529301703884e+01
5.210000000000000000e+02,1.419730769627851963e+01
5.220000000000000000e+02,1.419755619960365145e+01
5.230000000000000000e+02,1.419780074532975789e+01
5.240000000000000000e+02,1.419804174035641964e+01
5.250000000000000000e+02,1.419827889470427529e+01
5.260000000000000000e+02,1.419851244102311050e+01
5.270000000000000000e+02,1.419874243773323741e+01
5.280000000000000000e+02,1.419896923355463336e+01
5.290000000000000000e+02,1.419919213206561182e+01
5.300000000000000000e+02,1.419941188839885804e+01
5.310000000000000000e+02,1.419962803838899035e+01
5.320000000000000000e+02,1.419984098875302436e+01
5.330000000000000000e+02,1.420005073977875476e+01
5.340000000000000000e+02,1.420025734980161047e+01
5.350000000000000000e+02,1.420046070299505381e+01
5.360000000000000000e+02,1.420066085768750952e+01
5.370000000000000000e+02,1.420085822047890822e+01
5.380000000000000000e+02,1.420105238528358171e+01
5.390000000000000000e+02,1.420124370062733554e+01
5.400000000000000000e+02,1.420143181848612279e+01
5.410000000000000000e+02,1.420161743560443668e+01
5.420000000000000000e+02,1.420179985570583803e+01
5.430000000000000000e+02,1.420197948530202048e+01
5.440000000000000000e+02,1.420215655675053235e+01
5.450000000000000000e+02,1.420233083810254193e+01
5.460000000000000000e+02,1.420250267776521547e+01
5.470000000000000000e+02,1.420267161165776315e+01
5.480000000000000000e+02,1.420283810423464210e+01
5.490000000000000000e+02,1.420300209763796673e+01
5.500000000000000000e+02,1.420316359204082346e+01
5.510000000000000000e+02,1.420332258761365196e+01
5.520000000000000000e+02,1.420347914254990052e+01
5.530000000000000000e+02,1.420363319898653387e+01
5.540000000000000000e+02,1.420378510522503923e+01
5.550000000000000000e+02,1.420393457129369885e+01
5.560000000000000000e+02,1.420408188745018840e+01
5.570000000000000000e+02,1.420422676373053861e+01
5.580000000000000000e+02,1.420436943235755400e+01
5.590000000000000000e+02,1.420451000949870313e+01
5.600000000000000000e+02,1.420464849527814444e+01
5.610000000000000000e+02,1.420478483180320950e+01
5.620000000000000000e+02,1.420491901919763045e+01
5.630000000000000000e+02,1.420505111559600486e+01
5.640000000000000000e+02,1.420518141117372046e+01
5.650000000000000000e+02,1.420530955796566097e+01
5.660000000000000000e+02,1.420543561409778377e+01
5.670000000000000000e+02,1.420555986972466300e+01
5.680000000000000000e+02,1.420568238294842622e+01
5.690000000000000000e+02,1.420580274781251973e+01
5.700000000000000000e+02,1.420592137046607739e+01
5.710000000000000000e+02,1.420603819299161863e+01
5.720000000000000000e+02,1.420615327348175683e+01
5.730000000000000000e+02,1.420626655401825822e+01
5.740000000000000000e+02,1.420637844070103206e+01
5.750000000000000000e+02,1.420648817958200283e+01
5.760000000000000000e+02,1.420659646676301335e+01
5.770000000000000000e+02,1.420670307031316959e+01
5.780000000000000000e+02,1.420680781631286571e+01
5.790000000000000000e+02,1.420691116882524874e+01
5.800000000000000000e+02,1.420701277993038580e+01
5.810000000000000000e+02,1.420711293968287059e+01
5.820000000000000000e+02,1.420721170613925111e+01
5.830000000000000000e+02,1.420730873139139128e+01
5.840000000000000000e+02,1.420740465344016812e+01
5.850000000000000000e+02,1.420749877641641312e+01
5.860000000000000000e+02,1.420759150633610446e+01
5.870000000000000000e+02,1.420768284325379049e+01
5.880000000000000000e+02,1.420777272923260526e+01
5.890000000000000000e+02,1.420786122231747939e+01
5.900000000000000000e+02,1.420794867049537480e+01
5.910000000000000000e+02,1.420803466788574276e+01
5.920000000000000000e+02,1.420811927252901974e+01
5.930000000000000000e+02,1.420820242648788145e+01
5.940000000000000000e+02,1.420828453571813910e+01
5.950000000000000000e+02,1.420836525234151360e+01
5.960000000000000000e+02,1.420844486633098214e+01
5.970000000000000000e+02,1.420852308780130180e+01
5.980000000000000000e+02,1.420860020671763202e+01