# Time [s], Temperature [C]
1.000000000000000000e+00,2.500000000000000000e+01
2.000000000000000000e+00,2.500000000000000000e+01
3.000000000000000000e+00,2.500000000000000000e+01
4.000000000000000000e+00,2.500000000000000000e+01
5.000000000000000000e+00,2.500000599999999906e+01
6.000000000000000000e+00,2.500003600000000148e+01
7.000000000000000000e+00,2.500016199999999955e+01
8.000000000000000000e+00,2.500058699999999945e+01
9.000000000000000000e+00,2.500177800000000161e+01
1.000000000000000000e+01,2.500465600000000066e+01
1.100000000000000000e+01,2.501080699999999979e+01
1.200000000000000000e+01,2.502265699999999882e+01
1.300000000000000000e+01,2.504357100000000003e+01
1.400000000000000000e+01,2.507785000000000153e+01
1.500000000000000000e+01,2.513063800000000114e+01
1.600000000000000000e+01,2.520775199999999927e+01
1.700000000000000000e+01,2.531547499999999928e+01
1.800000000000000000e+01,2.546033299999999855e+01
1.900000000000000000e+01,2.564886500000000069e+01
2.000000000000000000e+01,2.588743799999999951e+01
2.100000000000000000e+01,2.618204100000000167e+01
2.200000000000000000e+01,2.653816000000000130e+01
2.300000000000000000e+01,2.696066100000000176e+01
2.400000000000000000e+01,2.747053100000000114e+01
2.500000000000000000e+01,2.804826699999999917e+01
2.600000000000000000e+01,2.870191600000000065e+01
2.700000000000000000e+01,2.943459500000000162e+01
2.800000000000000000e+01,3.024782799999999838e+01
2.900000000000000000e+01,3.114260900000000021e+01
3.000000000000000000e+01,3.211934300000000064e+01
3.100000000000000000e+01,3.317811600000000283e+01
3.200000000000000000e+01,3.431866099999999875e+01
3.300000000000000000e+01,3.554046199999999800e+01
3.400000000000000000e+01,3.684281500000000165e+01
3.500000000000000000e+01,3.822490700000000174e+01
3.600000000000000000e+01,3.968595100000000286e+01
3.700000000000000000e+01,4.122494100000000117e+01
3.800000000000000000e+01,4.284098399999999884e+01
3.900000000000000000e+01,4.453304700000000338e+01
4.000000000000000000e+01,4.630012099999999720e+01
4.100000000000000000e+01,4.814107500000000073e+01
4.200000000000000000e+01,5.005473299999999881e+01
4.300000000000000000e+01,5.204002799999999951e+01
4.400000000000000000e+01,5.409546999999999883e+01
4.500000000000000000e+01,5.621969200000000200e+01
4.600000000000000000e+01,5.841139199999999931e+01
4.700000000000000000e+01,6.066888800000000259e+01
4.800000000000000000e+01,6.299094000000000193e+01
4.900000000000000000e+01,6.537611400000000117e+01
5.000000000000000000e+01,6.782301300000000310e+01
5.100000000000000000e+01,7.033035999999999888e+01
5.200000000000000000e+01,7.289650000000000318e+01
5.300000000000000000e+01,7.552010300000000598e+01
5.400000000000000000e+01,7.819957700000000500e+01
5.500000000000000000e+01,8.093332700000000557e+01
5.600000000000000000e+01,8.371976499999999533e+01
5.700000000000000000e+01,8.655728100000000325e+01
5.800000000000000000e+01,8.944419100000000356e+01
5.900000000000000000e+01,9.237893699999999342e+01
6.000000000000000000e+01,9.535967999999999734e+01
6.100000000000000000e+01,9.838494900000000598e+01
6.200000000000000000e+01,1.014530799999999999e+02
6.300000000000000000e+01,1.045625200000000063e+02
6.400000000000000000e+01,1.077116199999999964e+02
6.500000000000000000e+01,1.108988899999999944e+02
6.600000000000000000e+01,1.141275499999999994e+02
6.700000000000000000e+01,1.173891600000000039e+02
6.800000000000000000e+01,1.206838800000000020e+02
6.900000000000000000e+01,1.240105400000000060e+02
7.000000000000000000e+01,1.273678699999999964e+02
7.100000000000000000e+01,1.307548700000000110e+02
7.200000000000000000e+01,1.341705499999999915e+02
7.300000000000000000e+01,1.376135899999999879e+02
7.400000000000000000e+01,1.410825299999999913e+02
7.500000000000000000e+01,1.445758999999999901e+02
7.600000000000000000e+01,1.480920700000000068e+02
7.700000000000000000e+01,1.516296100000000138e+02
7.800000000000000000e+01,1.551867799999999988e+02
7.900000000000000000e+01,1.587621900000000039e+02
8.000000000000000000e+01,1.623542799999999886e+02
8.100000000000000000e+01,1.659614699999999914e+02
8.200000000000000000e+01,1.695823100000000068e+02
8.300000000000000000e+01,1.732153000000000134e+02
8.400000000000000000e+01,1.768590199999999868e+02
8.500000000000000000e+01,1.805122100000000103e+02
8.600000000000000000e+01,1.841731399999999894e+02
8.700000000000000000e+01,1.878403299999999945e+02
8.800000000000000000e+01,1.915123399999999947e+02
8.900000000000000000e+01,1.951993899999999940e+02
9.000000000000000000e+01,1.988817300000000046e+02
9.100000000000000000e+01,2.025632500000000107e+02
9.200000000000000000e+01,2.062446600000000103e+02
9.300000000000000000e+01,2.099255499999999870e+02
9.400000000000000000e+01,2.136045200000000079e+02
9.500000000000000000e+01,2.172794199999999876e+02
9.600000000000000000e+01,2.209477500000000134e+02
9.700000000000000000e+01,2.246069300000000055e+02
9.800000000000000000e+01,2.282549400000000048e+02
9.900000000000000000e+01,2.318896000000000015e+02
1.000000000000000000e+02,2.355089399999999955e+02
1.010000000000000000e+02,2.391109600000000057e+02
1.020000000000000000e+02,2.426936499999999910e+02
1.030000000000000000e+02,2.462549099999999953e+02
1.040000000000000000e+02,2.497923600000000022e+02
1.050000000000000000e+02,2.533033599999999979e+02
1.060000000000000000e+02,2.567849400000000060e+02
1.070000000000000000e+02,2.602338899999999740e+02
1.080000000000000000e+02,2.636464799999999968e+02
1.090000000000000000e+02,2.670187399999999798e+02
1.100000000000000000e+02,2.703464099999999917e+02
1.110000000000000000e+02,2.736247299999999996e+02
1.120000000000000000e+02,2.768512600000000248e+02
1.130000000000000000e+02,2.800230700000000184e+02
1.140000000000000000e+02,2.831386100000000283e+02
1.150000000000000000e+02,2.861924999999999955e+02
1.160000000000000000e+02,2.891737699999999904e+02
1.170000000000000000e+02,2.920708300000000008e+02
1.180000000000000000e+02,2.948754900000000134e+02
1.190000000000000000e+02,2.975823700000000258e+02
1.200000000000000000e+02,3.001868900000000053e+02
1.210000000000000000e+02,3.026849399999999832e+02
1.220000000000000000e+02,3.050734600000000114e+02
1.230000000000000000e+02,3.073501600000000167e+02
1.240000000000000000e+02,3.095139199999999846e+02
1.250000000000000000e+02,3.115650299999999788e+02
1.260000000000000000e+02,3.135052200000000084e+02
1.270000000000000000e+02,3.153378299999999967e+02
1.280000000000000000e+02,3.170674700000000144e+02
1.290000000000000000e+02,3.187004999999999768e+02
1.300000000000000000e+02,3.202438999999999965e+02
1.310000000000000000e+02,3.217058999999999855e+02
1.320000000000000000e+02,3.231700399999999718e+02
1.330000000000000000e+02,3.245645799999999781e+02
1.340000000000000000e+02,3.258974900000000048e+02
1.350000000000000000e+02,3.271635400000000118e+02
1.360000000000000000e+02,3.283708799999999997e+02
1.370000000000000000e+02,3.295390899999999874e+02
1.380000000000000000e+02,3.306839899999999943e+02
1.390000000000000000e+02,3.318150299999999788e+02
1.400000000000000000e+02,3.329397000000000162e+02
1.410000000000000000e+02,3.340643900000000031e+02
1.420000000000000000e+02,3.351944300000000112e+02
1.430000000000000000e+02,3.363344099999999912e+02
1.440000000000000000e+02,3.374886799999999880e+02
1.450000000000000000e+02,3.386611599999999953e+02
1.460000000000000000e+02,3.398553800000000251e+02
1.470000000000000000e+02,3.410739100000000121e+02
1.480000000000000000e+02,3.423201300000000060e+02
1.490000000000000000e+02,3.435975599999999872e+02
1.500000000000000000e+02,3.453213499999999954e+02
1.510000000000000000e+02,3.468047799999999938e+02
1.520000000000000000e+02,3.481952499999999873e+02
1.530000000000000000e+02,3.495917999999999779e+02
1.540000000000000000e+02,3.510393100000000004e+02
1.550000000000000000e+02,3.525569800000000100e+02
1.560000000000000000e+02,3.541333000000000197e+02
1.570000000000000000e+02,3.557752100000000155e+02
1.580000000000000000e+02,3.574829700000000230e+02
1.590000000000000000e+02,3.592612899999999740e+02
1.600000000000000000e+02,3.611149300000000153e+02
1.610000000000000000e+02,3.630505999999999744e+02
1.620000000000000000e+02,3.650753199999999765e+02
1.630000000000000000e+02,3.671981499999999983e+02
1.640000000000000000e+02,3.694295000000000186e+02
1.650000000000000000e+02,3.717800300000000107e+02
1.660000000000000000e+02,3.742633700000000090e+02
1.670000000000000000e+02,3.768952300000000264e+02
1.680000000000000000e+02,3.796922900000000141e+02
1.690000000000000000e+02,3.826755400000000122e+02
1.700000000000000000e+02,3.870293300000000158e+02
1.710000000000000000e+02,3.906893900000000031e+02
1.720000000000000000e+02,3.942152100000000132e+02
1.730000000000000000e+02,3.982682800000000043e+02
1.740000000000000000e+02,4.026626299999999787e+02
1.750000000000000000e+02,4.074730200000000195e+02
1.760000000000000000e+02,4.127627899999999954e+02
1.770000000000000000e+02,4.185744300000000067e+02
1.780000000000000000e+02,4.249852900000000204e+02
1.790000000000000000e+02,4.320342099999999732e+02
1.800000000000000000e+02,4.397558300000000031e+02
1.810000000000000000e+02,4.481159700000000043e+02
1.820000000000000000e+02,4.570235000000000127e+02
1.830000000000000000e+02,4.662912900000000036e+02
1.840000000000000000e+02,4.756762699999999882e+02
1.850000000000000000e+02,4.849301100000000133e+02
1.860000000000000000e+02,4.938694499999999721e+02
1.870000000000000000e+02,5.023984399999999937e+02
1.880000000000000000e+02,5.104965199999999754e+02
1.890000000000000000e+02,5.181848099999999704e+02
1.900000000000000000e+02,5.255017100000000028e+02
1.910000000000000000e+02,5.324859599999999773e+02
1.920000000000000000e+02,5.391772499999999582e+02
1.930000000000000000e+02,5.456076000000000477e+02
1.940000000000000000e+02,5.518049300000000130e+02
1.950000000000000000e+02,5.577931499999999687e+02
1.960000000000000000e+02,5.635919199999999591e+02
1.970000000000000000e+02,5.692170999999999594e+02
1.980000000000000000e+02,5.746835899999999810e+02
1.990000000000000000e+02,5.800025600000000168e+02
2.000000000000000000e+02,5.851854899999999589e+02
2.010000000000000000e+02,5.902398100000000341e+02
2.020000000000000000e+02,5.951745600000000422e+02
2.030000000000000000e+02,5.999954199999999673e+02
2.040000000000000000e+02,6.047083099999999831e+02
2.050000000000000000e+02,6.093187900000000354e+02
2.060000000000000000e+02,6.138306900000000041e+02
2.070000000000000000e+02,6.182481699999999591e+02
2.080000000000000000e+02,6.225750100000000202e+02
2.090000000000000000e+02,6.268143900000000031e+02
2.100000000000000000e+02,6.309689300000000003e+02
2.110000000000000000e+02,6.350415600000000040e+02
2.120000000000000000e+02,6.390342399999999543e+02
2.130000000000000000e+02,6.429493999999999687e+02
2.140000000000000000e+02,6.467891799999999876e+02
2.150000000000000000e+02,6.505554200000000264e+02
2.160000000000000000e+02,6.542495699999999488e+02
2.170000000000000000e+02,6.578732899999999972e+02
2.180000000000000000e+02,6.614282200000000103e+02
2.190000000000000000e+02,6.649159499999999525e+02
2.200000000000000000e+02,6.683381299999999783e+02
2.210000000000000000e+02,6.716953700000000254e+02
2.220000000000000000e+02,6.749896899999999960e+02
2.230000000000000000e+02,6.782218599999999924e+02
2.240000000000000000e+02,6.813933100000000422e+02
2.250000000000000000e+02,6.845052500000000464e+02
2.260000000000000000e+02,6.875583500000000186e+02
2.270000000000000000e+02,6.905543800000000374e+02
2.280000000000000000e+02,6.934940800000000536e+02
2.290000000000000000e+02,6.963782999999999674e+02
2.300000000000000000e+02,6.992080700000000206e+02
2.310000000000000000e+02,7.019846199999999499e+02
2.320000000000000000e+02,7.047089200000000346e+02
2.330000000000000000e+02,7.073816500000000360e+02
2.340000000000000000e+02,7.100042700000000195e+02
2.350000000000000000e+02,7.125773299999999608e+02
2.360000000000000000e+02,7.151015599999999495e+02
2.370000000000000000e+02,7.175781200000000126e+02
2.380000000000000000e+02,7.200077499999999873e+02
2.390000000000000000e+02,7.223914800000000014e+02
2.400000000000000000e+02,7.247299199999999928e+02
2.410000000000000000e+02,7.270240499999999884e+02
2.420000000000000000e+02,7.292745999999999640e+02
2.430000000000000000e+02,7.314823000000000093e+02
2.440000000000000000e+02,7.336480699999999615e+02
2.450000000000000000e+02,7.357725799999999481e+02
2.460000000000000000e+02,7.378566299999999956e+02
2.470000000000000000e+02,7.399009399999999914e+02
2.480000000000000000e+02,7.419060699999999997e+02
2.490000000000000000e+02,7.438730500000000347e+02
2.500000000000000000e+02,7.458024299999999585e+02
2.510000000000000000e+02,7.476947000000000116e+02
2.520000000000000000e+02,7.495508999999999560e+02
2.530000000000000000e+02,7.513716399999999567e+02
2.540000000000000000e+02,7.531572899999999890e+02
2.550000000000000000e+02,7.549087500000000546e+02
2.560000000000000000e+02,7.566265899999999647e+02
2.570000000000000000e+02,7.583113399999999729e+02
2.580000000000000000e+02,7.599636799999999539e+02
2.590000000000000000e+02,7.615843499999999722e+02
2.600000000000000000e+02,7.631736499999999523e+02
2.610000000000000000e+02,7.647323599999999715e+02
2.620000000000000000e+02,7.662610499999999547e+02
2.630000000000000000e+02,7.677601899999999659e+02
2.640000000000000000e+02,7.692304100000000062e+02
2.650000000000000000e+02,7.706722399999999880e+02
2.660000000000000000e+02,7.720860599999999749e+02
2.670000000000000000e+02,7.734726000000000568e+02
2.680000000000000000e+02,7.748322100000000319e+02
2.690000000000000000e+02,7.761655899999999519e+02
2.700000000000000000e+02,7.774730799999999817e+02
2.710000000000000000e+02,7.787551899999999705e+02
2.720000000000000000e+02,7.800124499999999443e+02
2.730000000000000000e+02,7.812453000000000429e+02
2.740000000000000000e+02,7.824542800000000398e+02
2.750000000000000000e+02,7.836397100000000364e+02
2.760000000000000000e+02,7.848020599999999831e+02
2.770000000000000000e+02,7.859417099999999436e+02
2.780000000000000000e+02,7.870592000000000326e+02
2.790000000000000000e+02,7.881549099999999726e+02
2.800000000000000000e+02,7.892293100000000550e+02
2.810000000000000000e+02,7.902828399999999647e+02
2.820000000000000000e+02,7.913156699999999546e+02
2.830000000000000000e+02,7.923284300000000258e+02
2.840000000000000000e+02,7.933214100000000144e+02
2.850000000000000000e+02,7.942949800000000096e+02
2.860000000000000000e+02,7.952494500000000244e+02
2.870000000000000000e+02,7.961852999999999838e+02
2.880000000000000000e+02,7.971027800000000525e+02
2.890000000000000000e+02,7.980024399999999787e+02
2.900000000000000000e+02,7.988844000000000278e+02
2.910000000000000000e+02,7.997491499999999860e+02
2.920000000000000000e+02,8.005968599999999924e+02
2.930000000000000000e+02,8.014280400000000100e+02
2.940000000000000000e+02,8.022428599999999506e+02
2.950000000000000000e+02,8.030417499999999791e+02
2.960000000000000000e+02,8.038248899999999821e+02
2.970000000000000000e+02,8.045926500000000487e+02
2.980000000000000000e+02,8.053454000000000406e+02
2.990000000000000000e+02,8.060833699999999453e+02
3.000000000000000000e+02,8.068067600000000539e+02
3.010000000000000000e+02,8.075159899999999880e+02
3.020000000000000000e+02,8.082112399999999752e+02
3.030000000000000000e+02,8.088928200000000288e+02
3.040000000000000000e+02,8.095610400000000482e+02
3.050000000000000000e+02,8.102160599999999704e+02
3.060000000000000000e+02,8.108581500000000233e+02
3.070000000000000000e+02,8.114876100000000179e+02
3.080000000000000000e+02,8.121046800000000303e+02
3.090000000000000000e+02,8.127095900000000483e+02
3.100000000000000000e+02,8.133025499999999965e+02
3.110000000000000000e+02,8.138838500000000522e+02
3.120000000000000000e+02,8.144536100000000260e+02
3.130000000000000000e+02,8.150122099999999818e+02
3.140000000000000000e+02,8.155596900000000460e+02
3.150000000000000000e+02,8.160964400000000296e+02
3.160000000000000000e+02,8.166226199999999835e+02
3.170000000000000000e+02,8.171383100000000468e+02
3.180000000000000000e+02,8.176439199999999801e+02
3.190000000000000000e+02,8.181394699999999602e+02
3.200000000000000000e+02,8.186253100000000131e+02
3.210000000000000000e+02,8.191014400000000251e+02
3.220000000000000000e+02,8.195682399999999461e+02
3.230000000000000000e+02,8.200257000000000289e+02
3.240000000000000000e+02,8.204741800000000467e+02
3.250000000000000000e+02,8.209138199999999870e+02
3.260000000000000000e+02,8.213447300000000268e+02
3.270000000000000000e+02,8.217670900000000529e+02
3.280000000000000000e+02,8.221810900000000402e+02
3.290000000000000000e+02,8.225869099999999889e+02
3.300000000000000000e+02,8.229846800000000258e+02
3.310000000000000000e+02,8.233745699999999488e+02
3.320000000000000000e+02,8.237567099999999982e+02
3.330000000000000000e+02,8.241312900000000354e+02
3.340000000000000000e+02,8.244984699999999975e+02
3.350000000000000000e+02,8.248583399999999983e+02
3.360000000000000000e+02,8.252110599999999749e+02
3.370000000000000000e+02,8.255567600000000539e+02
3.380000000000000000e+02,8.258956899999999450e+02
3.390000000000000000e+02,8.262278400000000147e+02
3.400000000000000000e+02,8.265534099999999853e+02
3.410000000000000000e+02,8.268724999999999454e+02
3.420000000000000000e+02,8.271852999999999838e+02
3.430000000000000000e+02,8.274918800000000374e+02
3.440000000000000000e+02,8.277923600000000306e+02
3.450000000000000000e+02,8.280869099999999889e+02
3.460000000000000000e+02,8.283755499999999756e+02
3.470000000000000000e+02,8.286585099999999784e+02
3.480000000000000000e+02,8.289357899999999972e+02
3.490000000000000000e+02,8.292075800000000072e+02
3.500000000000000000e+02,8.294740000000000464e+02
3.510000000000000000e+02,8.297351099999999633e+02
3.520000000000000000e+02,8.299910300000000234e+02
3.530000000000000000e+02,8.302418800000000374e+02
3.540000000000000000e+02,8.304876699999999801e+02
3.550000000000000000e+02,8.307286400000000413e+02
3.560000000000000000e+02,8.309647800000000188e+02
3.570000000000000000e+02,8.311962300000000141e+02
3.580000000000000000e+02,8.314230999999999767e+02
3.590000000000000000e+02,8.316454499999999825e+02
3.600000000000000000e+02,8.318633399999999938e+02
3.610000000000000000e+02,8.320769699999999602e+02
3.620000000000000000e+02,8.322863200000000461e+02
3.630000000000000000e+02,8.324914599999999609e+02
3.640000000000000000e+02,8.326925700000000461e+02
3.650000000000000000e+02,8.328896499999999605e+02
3.660000000000000000e+02,8.330828199999999697e+02
3.670000000000000000e+02,8.332720900000000483e+02
3.680000000000000000e+02,8.334576399999999694e+02
3.690000000000000000e+02,8.336395300000000361e+02
3.700000000000000000e+02,8.338177500000000464e+02
3.710000000000000000e+02,8.339924300000000130e+02
3.720000000000000000e+02,8.341635700000000497e+02
3.730000000000000000e+02,8.343314199999999801e+02
3.740000000000000000e+02,8.344958500000000186e+02
3.750000000000000000e+02,8.346570400000000518e+02
3.760000000000000000e+02,8.348150000000000546e+02
3.770000000000000000e+02,8.349697899999999890e+02
3.780000000000000000e+02,8.351215200000000323e+02
3.790000000000000000e+02,8.352702000000000453e+02
3.800000000000000000e+02,8.354159499999999525e+02
3.810000000000000000e+02,8.355587799999999561e+02
3.820000000000000000e+02,8.356987900000000309e+02
3.830000000000000000e+02,8.358360000000000127e+02
3.840000000000000000e+02,8.359704600000000028e+02
3.850000000000000000e+02,8.361022299999999632e+02
3.860000000000000000e+02,8.362313799999999446e+02
3.870000000000000000e+02,8.363579700000000230e+02
3.880000000000000000e+02,8.364819899999999961e+02
3.890000000000000000e+02,8.366035799999999654e+02
3.900000000000000000e+02,8.367227199999999812e+02
3.910000000000000000e+02,8.368395400000000564e+02
3.920000000000000000e+02,8.369539800000000014e+02
3.930000000000000000e+02,8.370661000000000058e+02
3.940000000000000000e+02,8.371760900000000447e+02
3.950000000000000000e+02,8.372838100000000168e+02
3.960000000000000000e+02,8.373894000000000233e+02
3.970000000000000000e+02,8.374928599999999506e+02
3.980000000000000000e+02,8.375942999999999756e+02
3.990000000000000000e+02,8.376936600000000226e+02
4.000000000000000000e+02,8.377910799999999654e+02
4.010000000000000000e+02,8.378865399999999681e+02
4.020000000000000000e+02,8.379800999999999931e+02
4.030000000000000000e+02,8.380717799999999897e+02
4.040000000000000000e+02,8.381616199999999708e+02
4.050000000000000000e+02,8.382496899999999869e+02
4.060000000000000000e+02,8.383360000000000127e+02
4.070000000000000000e+02,8.384205899999999474e+02
4.080000000000000000e+02,8.385034799999999677e+02
4.090000000000000000e+02,8.385847199999999475e+02
4.100000000000000000e+02,8.386643699999999626e+02
4.110000000000000000e+02,8.387423700000000508e+02
4.120000000000000000e+02,8.388188499999999976e+02
4.130000000000000000e+02,8.388938000000000557e+02
4.140000000000000000e+02,8.389672900000000482e+02
4.150000000000000000e+02,8.390392500000000382e+02
4.160000000000000000e+02,8.391097999999999502e+02
4.170000000000000000e+02,8.391789599999999609e+02
4.180000000000000000e+02,8.392467000000000326e+02
4.190000000000000000e+02,8.393131100000000515e+02
4.200000000000000000e+02,8.393781699999999546e+02
4.210000000000000000e+02,8.394419599999999946e+02
4.220000000000000000e+02,8.395044599999999946e+02
4.230000000000000000e+02,8.395657300000000305e+02
4.240000000000000000e+02,8.396257299999999759e+02
4.250000000000000000e+02,8.396845700000000079e+02
4.260000000000000000e+02,8.397422500000000127e+02
4.270000000000000000e+02,8.397987699999999904e+02
4.280000000000000000e+02,8.398541300000000547e+02
4.290000000000000000e+02,8.399083900000000540e+02
4.300000000000000000e+02,8.399616099999999506e+02
4.310000000000000000e+02,8.400137300000000096e+02
4.320000000000000000e+02,8.400648200000000543e+02
4.330000000000000000e+02,8.401148699999999963e+02
4.340000000000000000e+02,8.401639400000000251e+02
4.350000000000000000e+02,8.402119800000000396e+02
4.360000000000000000e+02,8.402590900000000147e+02
4.370000000000000000e+02,8.403052999999999884e+02
4.380000000000000000e+02,8.403505199999999604e+02
4.390000000000000000e+02,8.403949000000000069e+02
4.400000000000000000e+02,8.404383500000000140e+02
4.410000000000000000e+02,8.404809599999999818e+02
4.420000000000000000e+02,8.405227099999999609e+02
4.430000000000000000e+02,8.405636600000000271e+02
4.440000000000000000e+02,8.406037599999999657e+02
4.450000000000000000e+02,8.406430699999999661e+02
4.460000000000000000e+02,8.406815199999999777e+02
4.470000000000000000e+02,8.407192999999999756e+02
4.480000000000000000e+02,8.407562900000000354e+02
4.490000000000000000e+02,8.407925400000000309e+02
4.500000000000000000e+02,8.408280600000000504e+02
4.510000000000000000e+02,8.408628499999999804e+02
4.520000000000000000e+02,8.408969700000000103e+02
4.530000000000000000e+02,8.409304200000000264e+02
4.540000000000000000e+02,8.409632000000000289e+02
4.550000000000000000e+02,8.409953000000000429e+02
4.560000000000000000e+02,8.410267300000000432e+02
4.570000000000000000e+02,8.410575599999999667e+02
4.580000000000000000e+02,8.410877699999999777e+02
4.590000000000000000e+02,8.411174300000000130e+02
4.600000000000000000e+02,8.411464200000000346e+02
4.610000000000000000e+02,8.411748700000000554e+02
4.620000000000000000e+02,8.412027600000000120e+02
4.630000000000000000e+02,8.412300999999999931e+02
4.640000000000000000e+02,8.412568400000000111e+02
4.650000000000000000e+02,8.412830800000000409e+02
4.660000000000000000e+02,8.413088400000000320e+02
4.670000000000000000e+02,8.413340500000000475e+02
4.680000000000000000e+02,8.413586999999999989e+02
4.690000000000000000e+02,8.413829299999999876e+02
4.700000000000000000e+02,8.414066800000000512e+02
4.710000000000000000e+02,8.414299300000000130e+02
4.720000000000000000e+02,8.414527000000000498e+02
4.730000000000000000e+02,8.414750400000000354e+02
4.740000000000000000e+02,8.414968900000000076e+02
4.750000000000000000e+02,8.415183700000000044e+02
4.760000000000000000e+02,8.415393699999999626e+02
4.770000000000000000e+02,8.415599399999999832e+02
4.780000000000000000e+02,8.415801400000000285e+02
4.790000000000000000e+02,8.415999100000000226e+02
4.800000000000000000e+02,8.416193200000000161e+02
4.810000000000000000e+02,8.416383100000000468e+02
4.820000000000000000e+02,8.416569200000000137e+02
4.830000000000000000e+02,8.416751699999999801e+02
4.840000000000000000e+02,8.416930499999999711e+02
4.850000000000000000e+02,8.417105699999999615e+02
4.860000000000000000e+02,8.417277199999999766e+02
4.870000000000000000e+02,8.417445699999999533e+02
4.880000000000000000e+02,8.417610499999999547e+02
4.890000000000000000e+02,8.417772200000000566e+02
4.900000000000000000e+02,8.417930300000000443e+02
4.910000000000000000e+02,8.418085300000000188e+02
4.920000000000000000e+02,8.418237299999999550e+02
4.930000000000000000e+02,8.418386799999999539e+02
4.940000000000000000e+02,8.418532699999999522e+02
4.950000000000000000e+02,8.418675500000000511e+02
4.960000000000000000e+02,8.418815899999999601e+02
4.970000000000000000e+02,8.418953199999999697e+02
4.980000000000000000e+02,8.419088100000000168e+02
4.990000000000000000e+02,8.419220000000000255e+02
5.000000000000000000e+02,8.419349399999999832e+02
5.010000000000000000e+02,8.419476300000000037e+02
5.020000000000000000e+02,8.419600799999999481e+02
5.030000000000000000e+02,8.419722299999999677e+02
5.040000000000000000e+02,8.419841900000000123e+02
5.050000000000000000e+02,8.419959099999999808e+02
5.060000000000000000e+02,8.420073899999999867e+02
5.070000000000000000e+02,8.420186200000000554e+02
5.080000000000000000e+02,8.420295999999999594e+02
5.090000000000000000e+02,8.420404099999999517e+02
5.100000000000000000e+02,8.420509600000000319e+02
5.110000000000000000e+02,8.420613399999999729e+02
5.120000000000000000e+02,8.420714699999999766e+02
5.130000000000000000e+02,8.420814199999999801e+02
5.140000000000000000e+02,8.420911899999999832e+02
5.150000000000000000e+02,8.421007700000000114e+02
5.160000000000000000e+02,8.421101099999999633e+02
5.170000000000000000e+02,8.421193200000000161e+02
5.180000000000000000e+02,8.421282999999999674e+02
5.190000000000000000e+02,8.421371500000000196e+02
5.200000000000000000e+02,8.421457500000000209e+02
5.210000000000000000e+02,8.421542399999999589e+02
5.220000000000000000e+02,8.421625400000000354e+02
5.230000000000000000e+02,8.421706500000000233e+02
5.240000000000000000e+02,8.421786499999999478e+02
5.250000000000000000e+02,8.421864600000000110e+02
5.260000000000000000e+02,8.421940899999999601e+02
5.270000000000000000e+02,8.422015999999999849e+02
5.280000000000000000e+02,8.422089799999999968e+02
5.290000000000000000e+02,8.422161899999999832e+02
5.300000000000000000e+02,8.422232099999999946e+02
5.310000000000000000e+02,8.422301599999999553e+02
5.320000000000000000e+02,8.422369400000000041e+02
5.330000000000000000e+02,8.422435900000000402e+02
5.340000000000000000e+02,8.422500599999999622e+02
5.350000000000000000e+02,8.422564700000000357e+02
5.360000000000000000e+02,8.422626999999999953e+02
5.370000000000000000e+02,8.422688600000000179e+02
5.380000000000000000e+02,8.422748400000000402e+02
5.390000000000000000e+02,8.422807599999999866e+02
5.400000000000000000e+02,8.422865000000000464e+02
5.410000000000000000e+02,8.422921800000000303e+02
5.420000000000000000e+02,8.422977300000000014e+02
5.430000000000000000e+02,8.423031600000000481e+02
5.440000000000000000e+02,8.423084700000000566e+02
5.450000000000000000e+02,8.423136600000000271e+02
5.460000000000000000e+02,8.423187900000000354e+02
5.470000000000000000e+02,8.423237900000000309e+02
5.480000000000000000e+02,8.423286699999999882e+02
5.490000000000000000e+02,8.423334999999999582e+02
5.500000000000000000e+02,8.423382000000000289e+02
5.510000000000000000e+02,8.423428300000000490e+02
5.520000000000000000e+02,8.423473500000000058e+02
5.530000000000000000e+02,8.423518100000000004e+02
5.540000000000000000e+02,8.423561399999999821e+02
5.550000000000000000e+02,8.423604100000000017e+02
5.560000000000000000e+02,8.423645599999999831e+02
5.570000000000000000e+02,8.423686500000000024e+02
5.580000000000000000e+02,8.423726799999999457e+02
5.590000000000000000e+02,8.423765899999999647e+02
5.600000000000000000e+02,8.423804900000000089e+02
5.610000000000000000e+02,8.423842200000000275e+02
5.620000000000000000e+02,8.423879399999999578e+02
5.630000000000000000e+02,8.423915399999999636e+02
5.640000000000000000e+02,8.423951399999999694e+02
5.650000000000000000e+02,8.423986200000000508e+02
5.660000000000000000e+02,8.424020400000000564e+02
5.670000000000000000e+02,8.424053300000000490e+02
5.680000000000000000e+02,8.424086300000000165e+02
5.690000000000000000e+02,8.424118700000000217e+02
5.700000000000000000e+02,8.424149800000000141e+02
5.710000000000000000e+02,8.424180900000000065e+02
5.720000000000000000e+02,8.424210799999999608e+02
5.730000000000000000e+02,8.424240700000000288e+02
5.740000000000000000e+02,8.424269399999999450e+02
5.750000000000000000e+02,8.424298099999999749e+02
5.760000000000000000e+02,8.424326200000000426e+02
5.770000000000000000e+02,8.424352999999999838e+02
5.780000000000000000e+02,8.424379900000000134e+02
5.790000000000000000e+02,8.424406099999999924e+02
5.800000000000000000e+02,8.424431799999999839e+02
5.810000000000000000e+02,8.424457400000000007e+02
5.820000000000000000e+02,8.424481799999999794e+02
5.830000000000000000e+02,8.424506199999999581e+02
5.840000000000000000e+02,8.424529999999999745e+02
5.850000000000000000e+02,8.424553200000000288e+02
5.860000000000000000e+02,8.424575800000000072e+02
5.870000000000000000e+02,8.424597800000000234e+02
5.880000000000000000e+02,8.424619800000000396e+02
5.890000000000000000e+02,8.424641100000000051e+02
5.900000000000000000e+02,8.424662499999999454e+02
5.910000000000000000e+02,8.424683199999999488e+02
5.920000000000000000e+02,8.424703399999999647e+02
5.930000000000000000e+02,8.424722900000000436e+02
5.940000000000000000e+02,8.424742400000000089e+02
5.950000000000000000e+02,8.424761399999999867e+02
5.960000000000000000e+02,8.424779700000000275e+02
5.970000000000000000e+02,8.424797999999999547e+02
5.980000000000000000e+02,8.424816299999999956e+02
5.990000000000000000e+02,8.424833399999999983e+02