# Time [s], Temperature [C]
1.000000000000000000e+00,2.499997300000000067e+01
2.000000000000000000e+00,1.054064500000000066e+02
3.000000000000000000e+00,1.551887999999999863e+02
4.000000000000000000e+00,1.927965900000000090e+02
5.000000000000000000e+00,2.239108699999999885e+02
6.000000000000000000e+00,2.507349900000000105e+02
7.000000000000000000e+00,2.747652299999999741e+02
8.000000000000000000e+00,2.972823799999999892e+02
9.000000000000000000e+00,3.175950900000000274e+02
1.000000000000000000e+01,3.348127400000000193e+02
1.100000000000000000e+01,3.488623400000000174e+02
1.200000000000000000e+01,3.594351199999999835e+02
1.300000000000000000e+01,3.669585000000000150e+02
1.400000000000000000e+01,3.727778599999999756e+02
1.500000000000000000e+01,3.783226900000000228e+02
1.600000000000000000e+01,3.837957499999999982e+02
1.700000000000000000e+01,3.891984600000000114e+02
1.800000000000000000e+01,3.956353799999999978e+02
1.900000000000000000e+01,4.021742199999999912e+02
2.000000000000000000e+01,4.087107199999999807e+02
2.100000000000000000e+01,4.162860699999999952e+02
2.200000000000000000e+01,4.232943099999999959e+02
2.300000000000000000e+01,4.292489299999999730e+02
2.400000000000000000e+01,4.356979999999999791e+02
2.500000000000000000e+01,4.412021799999999985e+02
2.600000000000000000e+01,4.457666899999999828e+02
2.700000000000000000e+01,4.507543900000000008e+02
2.800000000000000000e+01,4.554664900000000216e+02
2.900000000000000000e+01,4.599970099999999888e+02
3.000000000000000000e+01,4.649374099999999999e+02
3.100000000000000000e+01,4.699541899999999828e+02
3.200000000000000000e+01,4.749406099999999924e+02
3.300000000000000000e+01,4.798561100000000010e+02
3.400000000000000000e+01,4.845492199999999912e+02
3.500000000000000000e+01,4.889740600000000086e+02
3.600000000000000000e+01,4.931690100000000143e+02
3.700000000000000000e+01,4.971809700000000021e+02
3.800000000000000000e+01,5.010809300000000235e+02
3.900000000000000000e+01,5.036328700000000254e+02
4.000000000000000000e+01,4.944753400000000170e+02
4.100000000000000000e+01,4.981378799999999956e+02
4.200000000000000000e+01,5.011256700000000137e+02
4.300000000000000000e+01,5.057109399999999937e+02
4.400000000000000000e+01,5.095337200000000166e+02
4.500000000000000000e+01,5.136804799999999886e+02
4.600000000000000000e+01,5.173842799999999897e+02
4.700000000000000000e+01,5.210632900000000518e+02
4.800000000000000000e+01,5.244885900000000447e+02
4.900000000000000000e+01,5.278342300000000478e+02
5.000000000000000000e+01,5.310571300000000292e+02
5.100000000000000000e+01,5.342353500000000395e+02
5.200000000000000000e+01,5.373550400000000309e+02
5.300000000000000000e+01,5.404368299999999863e+02
5.400000000000000000e+01,5.434461099999999760e+02
5.500000000000000000e+01,5.463823899999999867e+02
5.600000000000000000e+01,5.492230200000000195e+02
5.700000000000000000e+01,5.519752799999999979e+02
5.800000000000000000e+01,5.546364700000000312e+02
5.900000000000000000e+01,5.572351099999999633e+02
6.000000000000000000e+01,5.597766100000000051e+02
6.100000000000000000e+01,5.622813099999999622e+02
6.200000000000000000e+01,5.647539100000000190e+02
6.300000000000000000e+01,5.672012300000000096e+02
6.400000000000000000e+01,5.696164599999999609e+02
6.500000000000000000e+01,5.720023200000000543e+02
6.600000000000000000e+01,5.743365499999999884e+02
6.700000000000000000e+01,5.747763099999999667e+02
6.800000000000000000e+01,5.767790499999999838e+02
6.900000000000000000e+01,5.782418800000000374e+02
7.000000000000000000e+01,5.801599700000000439e+02
7.100000000000000000e+01,5.823032200000000103e+02
7.200000000000000000e+01,5.844423799999999574e+02
7.300000000000000000e+01,5.866028400000000147e+02
7.400000000000000000e+01,5.887227799999999434e+02
7.500000000000000000e+01,5.908056000000000267e+02
7.600000000000000000e+01,5.928425300000000107e+02
7.700000000000000000e+01,5.948372799999999643e+02
7.800000000000000000e+01,5.967834500000000162e+02
7.900000000000000000e+01,5.986832299999999805e+02
8.000000000000000000e+01,6.005412000000000035e+02
8.100000000000000000e+01,6.023561999999999443e+02
8.200000000000000000e+01,6.041309800000000223e+02
8.300000000000000000e+01,6.058769499999999653e+02
8.400000000000000000e+01,6.075896599999999808e+02
8.500000000000000000e+01,6.092791700000000219e+02
8.600000000000000000e+01,6.109471999999999525e+02
8.700000000000000000e+01,6.125924099999999726e+02
8.800000000000000000e+01,6.142184399999999869e+02
8.900000000000000000e+01,6.158253200000000334e+02
9.000000000000000000e+01,6.174075299999999515e+02
9.100000000000000000e+01,6.189656999999999698e+02
9.200000000000000000e+01,6.205011600000000271e+02
9.300000000000000000e+01,6.220074499999999489e+02
9.400000000000000000e+01,6.234916399999999612e+02
9.500000000000000000e+01,6.249510500000000093e+02
9.600000000000000000e+01,6.263873300000000199e+02
9.700000000000000000e+01,6.278015699999999697e+02
9.800000000000000000e+01,6.290266699999999673e+02
9.900000000000000000e+01,6.300238600000000133e+02
1.000000000000000000e+02,6.311334799999999632e+02
1.010000000000000000e+02,6.322924199999999928e+02
1.020000000000000000e+02,6.334674700000000485e+02
1.030000000000000000e+02,6.347214400000000296e+02
1.040000000000000000e+02,6.359791900000000169e+02
1.050000000000000000e+02,6.372626999999999953e+02
1.060000000000000000e+02,6.385405299999999897e+02
1.070000000000000000e+02,6.398242199999999684e+02
1.080000000000000000e+02,6.410980200000000195e+02
1.090000000000000000e+02,6.423636500000000069e+02
1.100000000000000000e+02,6.436238399999999729e+02
1.110000000000000000e+02,6.448707299999999805e+02
1.120000000000000000e+02,6.461069300000000339e+02
1.130000000000000000e+02,6.473337999999999965e+02
1.140000000000000000e+02,6.485443699999999581e+02
1.150000000000000000e+02,6.497431599999999889e+02
1.160000000000000000e+02,6.509283400000000483e+02
1.170000000000000000e+02,6.520964999999999918e+02
1.180000000000000000e+02,6.532494500000000244e+02
1.190000000000000000e+02,6.543909899999999880e+02
1.200000000000000000e+02,6.555154400000000123e+02
1.210000000000000000e+02,6.566276900000000296e+02
1.220000000000000000e+02,6.577274800000000141e+02
1.230000000000000000e+02,6.588157999999999674e+02
1.240000000000000000e+02,6.598928799999999910e+02
1.250000000000000000e+02,6.609272499999999582e+02
1.260000000000000000e+02,6.618698699999999917e+02
1.270000000000000000e+02,6.627896100000000388e+02
1.280000000000000000e+02,6.637031200000000126e+02
1.290000000000000000e+02,6.646181000000000267e+02
1.300000000000000000e+02,6.655394900000000007e+02
1.310000000000000000e+02,6.664818699999999581e+02
1.320000000000000000e+02,6.674294399999999996e+02
1.330000000000000000e+02,6.683888500000000477e+02
1.340000000000000000e+02,6.693539399999999659e+02
1.350000000000000000e+02,6.703187299999999595e+02
1.360000000000000000e+02,6.712831400000000031e+02
1.370000000000000000e+02,6.722445099999999911e+02
1.380000000000000000e+02,6.732007399999999961e+02
1.390000000000000000e+02,6.741477099999999609e+02
1.400000000000000000e+02,6.750915499999999838e+02
1.410000000000000000e+02,6.760234400000000505e+02
1.420000000000000000e+02,6.769451299999999492e+02
1.430000000000000000e+02,6.778617600000000039e+02
1.440000000000000000e+02,6.787664800000000014e+02
1.450000000000000000e+02,6.796611900000000333e+02
1.460000000000000000e+02,6.805517599999999447e+02
1.470000000000000000e+02,6.814224900000000389e+02
1.480000000000000000e+02,6.822666000000000395e+02
1.490000000000000000e+02,6.830882599999999911e+02
1.500000000000000000e+02,6.838830600000000004e+02
1.510000000000000000e+02,6.846693099999999959e+02
1.520000000000000000e+02,6.854501999999999953e+02
1.530000000000000000e+02,6.862274800000000141e+02
1.540000000000000000e+02,6.870046999999999571e+02
1.550000000000000000e+02,6.877836300000000165e+02
1.560000000000000000e+02,6.885614000000000487e+02
1.570000000000000000e+02,6.893367299999999886e+02
1.580000000000000000e+02,6.901131000000000313e+02
1.590000000000000000e+02,6.908831199999999626e+02
1.600000000000000000e+02,6.916503300000000536e+02
1.610000000000000000e+02,6.924147900000000391e+02
1.620000000000000000e+02,6.931711999999999989e+02
1.630000000000000000e+02,6.939234000000000151e+02
1.640000000000000000e+02,6.946704099999999471e+02
1.650000000000000000e+02,6.954113800000000083e+02
1.660000000000000000e+02,6.961467300000000478e+02
1.670000000000000000e+02,6.968776199999999790e+02
1.680000000000000000e+02,6.976016200000000254e+02
1.690000000000000000e+02,6.983345900000000483e+02
1.700000000000000000e+02,6.990537699999999859e+02
1.710000000000000000e+02,6.997554900000000089e+02
1.720000000000000000e+02,7.004425700000000461e+02
1.730000000000000000e+02,7.011198100000000295e+02
1.740000000000000000e+02,7.017854599999999436e+02
1.750000000000000000e+02,7.024475700000000415e+02
1.760000000000000000e+02,7.031086999999999989e+02
1.770000000000000000e+02,7.037653199999999742e+02
1.780000000000000000e+02,7.044218100000000504e+02
1.790000000000000000e+02,7.050793499999999767e+02
1.800000000000000000e+02,7.057342499999999745e+02
1.810000000000000000e+02,7.063895899999999983e+02
1.820000000000000000e+02,7.070463899999999740e+02
1.830000000000000000e+02,7.077011099999999715e+02
1.840000000000000000e+02,7.083555900000000065e+02
1.850000000000000000e+02,7.090141599999999471e+02
1.860000000000000000e+02,7.096700399999999718e+02
1.870000000000000000e+02,7.103282500000000255e+02
1.880000000000000000e+02,7.109899900000000343e+02
1.890000000000000000e+02,7.116508800000000292e+02
1.900000000000000000e+02,7.123152499999999918e+02
1.910000000000000000e+02,7.129839500000000498e+02
1.920000000000000000e+02,7.136540499999999838e+02
1.930000000000000000e+02,7.143281200000000126e+02
1.940000000000000000e+02,7.150103800000000547e+02
1.950000000000000000e+02,7.156965300000000525e+02
1.960000000000000000e+02,7.163756700000000137e+02
1.970000000000000000e+02,7.170477899999999636e+02
1.980000000000000000e+02,7.177624499999999443e+02
1.990000000000000000e+02,7.184754599999999982e+02
2.000000000000000000e+02,7.192078199999999697e+02
2.010000000000000000e+02,7.199495799999999690e+02
2.020000000000000000e+02,7.207095299999999725e+02
2.030000000000000000e+02,7.214894399999999450e+02
2.040000000000000000e+02,7.222907099999999900e+02
2.050000000000000000e+02,7.231179799999999886e+02
2.060000000000000000e+02,7.239740600000000086e+02
2.070000000000000000e+02,7.248587599999999611e+02
2.080000000000000000e+02,7.257780800000000454e+02
2.090000000000000000e+02,7.267329099999999471e+02
2.100000000000000000e+02,7.277230200000000195e+02
2.110000000000000000e+02,7.287515300000000025e+02
2.120000000000000000e+02,7.298160400000000436e+02
2.130000000000000000e+02,7.309168700000000172e+02
2.140000000000000000e+02,7.320480300000000398e+02
2.150000000000000000e+02,7.332125899999999774e+02
2.160000000000000000e+02,7.343991700000000264e+02
2.170000000000000000e+02,7.356078499999999849e+02
2.180000000000000000e+02,7.368354500000000371e+02
2.190000000000000000e+02,7.380743999999999687e+02
2.200000000000000000e+02,7.393229999999999791e+02
2.210000000000000000e+02,7.405795900000000529e+02
2.220000000000000000e+02,7.418375200000000405e+02
2.230000000000000000e+02,7.430954000000000406e+02
2.240000000000000000e+02,7.443545500000000175e+02
2.250000000000000000e+02,7.456069300000000339e+02
2.260000000000000000e+02,7.468537599999999657e+02
2.270000000000000000e+02,7.480947300000000268e+02
2.280000000000000000e+02,7.493254399999999578e+02
2.290000000000000000e+02,7.505459600000000364e+02
2.300000000000000000e+02,7.517591599999999517e+02
2.310000000000000000e+02,7.529572100000000319e+02
2.320000000000000000e+02,7.541436800000000176e+02
2.330000000000000000e+02,7.553206199999999626e+02
2.340000000000000000e+02,7.564809000000000196e+02
2.350000000000000000e+02,7.576277499999999918e+02
2.360000000000000000e+02,7.587642200000000230e+02
2.370000000000000000e+02,7.598822000000000116e+02
2.380000000000000000e+02,7.609865099999999529e+02
2.390000000000000000e+02,7.620796500000000151e+02
2.400000000000000000e+02,7.631548500000000104e+02
2.410000000000000000e+02,7.642165499999999838e+02
2.420000000000000000e+02,7.652646499999999605e+02
2.430000000000000000e+02,7.662972999999999502e+02
2.440000000000000000e+02,7.673156699999999546e+02
2.450000000000000000e+02,7.683221399999999903e+02
2.460000000000000000e+02,7.693115800000000490e+02
2.470000000000000000e+02,7.702866199999999708e+02
2.480000000000000000e+02,7.712518900000000031e+02
2.490000000000000000e+02,7.721986699999999928e+02
2.500000000000000000e+02,7.731332400000000007e+02
2.510000000000000000e+02,7.740556599999999889e+02
2.520000000000000000e+02,7.749630700000000161e+02
2.530000000000000000e+02,7.758561999999999443e+02
2.540000000000000000e+02,7.767395000000000209e+02
2.550000000000000000e+02,7.776062600000000202e+02
2.560000000000000000e+02,7.784620400000000018e+02
2.570000000000000000e+02,7.793057900000000018e+02
2.580000000000000000e+02,7.801354400000000169e+02
2.590000000000000000e+02,7.809525099999999611e+02
2.600000000000000000e+02,7.817611699999999928e+02
2.610000000000000000e+02,7.825541399999999612e+02
2.620000000000000000e+02,7.833360000000000127e+02
2.630000000000000000e+02,7.841084600000000364e+02
2.640000000000000000e+02,7.848671900000000505e+02
2.650000000000000000e+02,7.856143799999999828e+02
2.660000000000000000e+02,7.863533300000000281e+02
2.670000000000000000e+02,7.870788000000000011e+02
2.680000000000000000e+02,7.877930300000000443e+02
2.690000000000000000e+02,7.884992700000000241e+02
2.700000000000000000e+02,7.891927500000000464e+02
2.710000000000000000e+02,7.898750000000000000e+02
2.720000000000000000e+02,7.905499899999999798e+02
2.730000000000000000e+02,7.912126500000000533e+02
2.740000000000000000e+02,7.918651700000000346e+02
2.750000000000000000e+02,7.925109899999999925e+02
2.760000000000000000e+02,7.931445899999999938e+02
2.770000000000000000e+02,7.937684900000000425e+02
2.780000000000000000e+02,7.943857400000000553e+02
2.790000000000000000e+02,7.949916399999999612e+02
2.800000000000000000e+02,7.955880100000000539e+02
2.810000000000000000e+02,7.961779800000000478e+02
2.820000000000000000e+02,7.967564099999999598e+02
2.830000000000000000e+02,7.973271499999999605e+02
2.840000000000000000e+02,7.978901399999999740e+02
2.850000000000000000e+02,7.984442099999999982e+02
2.860000000000000000e+02,7.989889500000000453e+02
2.870000000000000000e+02,7.995272800000000188e+02
2.880000000000000000e+02,8.000563399999999774e+02
2.890000000000000000e+02,8.005772699999999986e+02
2.900000000000000000e+02,8.010922199999999975e+02
2.910000000000000000e+02,8.015979599999999436e+02
2.920000000000000000e+02,8.020960099999999784e+02
2.930000000000000000e+02,8.025882000000000289e+02
2.940000000000000000e+02,8.030718399999999519e+02
2.950000000000000000e+02,8.035476099999999633e+02
2.960000000000000000e+02,8.040180100000000039e+02
2.970000000000000000e+02,8.044797999999999547e+02
2.980000000000000000e+02,8.049344499999999698e+02
2.990000000000000000e+02,8.053846399999999903e+02
3.000000000000000000e+02,8.058259299999999712e+02
3.010000000000000000e+02,8.062606200000000172e+02
3.020000000000000000e+02,8.066901199999999790e+02
3.030000000000000000e+02,8.071118199999999661e+02
3.040000000000000000e+02,8.075273399999999810e+02
3.050000000000000000e+02,8.079384199999999510e+02
3.060000000000000000e+02,8.083413699999999835e+02
3.070000000000000000e+02,8.087386500000000069e+02
3.080000000000000000e+02,8.091314700000000357e+02
3.090000000000000000e+02,8.095164800000000014e+02
3.100000000000000000e+02,8.098961799999999585e+02
3.110000000000000000e+02,8.102714799999999968e+02
3.120000000000000000e+02,8.106397100000000364e+02
3.130000000000000000e+02,8.110026900000000296e+02
3.140000000000000000e+02,8.113610800000000154e+02
3.150000000000000000e+02,8.117130100000000539e+02
3.160000000000000000e+02,8.120597500000000082e+02
3.170000000000000000e+02,8.124022200000000566e+02
3.180000000000000000e+02,8.127385900000000447e+02
3.190000000000000000e+02,8.130698899999999867e+02
3.200000000000000000e+02,8.133970900000000483e+02
3.210000000000000000e+02,8.137186299999999619e+02
3.220000000000000000e+02,8.140352799999999434e+02
3.230000000000000000e+02,8.143484499999999571e+02
3.240000000000000000e+02,8.146555200000000241e+02
3.250000000000000000e+02,8.149578199999999697e+02
3.260000000000000000e+02,8.152570799999999736e+02
3.270000000000000000e+02,8.155505399999999554e+02
3.280000000000000000e+02,8.158397800000000188e+02
3.290000000000000000e+02,8.161251200000000381e+02
3.300000000000000000e+02,8.164057000000000244e+02
3.310000000000000000e+02,8.166820099999999911e+02
3.320000000000000000e+02,8.169549600000000282e+02
3.330000000000000000e+02,8.172224700000000439e+02
3.340000000000000000e+02,8.174866899999999532e+02
3.350000000000000000e+02,8.177477999999999838e+02
3.360000000000000000e+02,8.180035400000000436e+02
3.370000000000000000e+02,8.182560399999999845e+02
3.380000000000000000e+02,8.185054300000000467e+02
3.390000000000000000e+02,8.187497600000000375e+02
3.400000000000000000e+02,8.189911499999999478e+02
3.410000000000000000e+02,8.192293700000000172e+02
3.420000000000000000e+02,8.194628300000000536e+02
3.430000000000000000e+02,8.196933000000000220e+02
3.440000000000000000e+02,8.199206500000000233e+02
3.450000000000000000e+02,8.201442899999999554e+02
3.460000000000000000e+02,8.203643200000000206e+02
3.470000000000000000e+02,8.205813600000000179e+02
3.480000000000000000e+02,8.207949800000000096e+02
3.490000000000000000e+02,8.210048199999999952e+02
3.500000000000000000e+02,8.212129499999999780e+02
3.510000000000000000e+02,8.214165000000000418e+02
3.520000000000000000e+02,8.216176799999999503e+02
3.530000000000000000e+02,8.218157999999999674e+02
3.540000000000000000e+02,8.220109899999999925e+02
3.550000000000000000e+02,8.222024499999999989e+02
3.560000000000000000e+02,8.223924600000000282e+02
3.570000000000000000e+02,8.225782500000000255e+02
3.580000000000000000e+02,8.227618999999999687e+02
3.590000000000000000e+02,8.229428100000000086e+02
3.600000000000000000e+02,8.231209099999999808e+02
3.610000000000000000e+02,8.232957199999999602e+02
3.620000000000000000e+02,8.234690600000000131e+02
3.630000000000000000e+02,8.236383700000000090e+02
3.640000000000000000e+02,8.238057300000000396e+02
3.650000000000000000e+02,8.239712500000000546e+02
3.660000000000000000e+02,8.241333600000000388e+02
3.670000000000000000e+02,8.242934599999999818e+02
3.680000000000000000e+02,8.244512899999999718e+02
3.690000000000000000e+02,8.246066299999999956e+02
3.700000000000000000e+02,8.247589699999999766e+02
3.710000000000000000e+02,8.249099099999999680e+02
3.720000000000000000e+02,8.250581700000000183e+02
3.730000000000000000e+02,8.252037400000000389e+02
3.740000000000000000e+02,8.253479599999999436e+02
3.750000000000000000e+02,8.254895599999999831e+02
3.760000000000000000e+02,8.256287800000000061e+02
3.770000000000000000e+02,8.257666600000000017e+02
3.780000000000000000e+02,8.259014300000000048e+02
3.790000000000000000e+02,8.260346700000000055e+02
3.800000000000000000e+02,8.261664399999999659e+02
3.810000000000000000e+02,8.262952900000000227e+02
3.820000000000000000e+02,8.264224199999999882e+02
3.830000000000000000e+02,8.265484000000000151e+02
3.840000000000000000e+02,8.266713899999999740e+02
3.850000000000000000e+02,8.267929699999999684e+02
3.860000000000000000e+02,8.269132700000000114e+02
3.870000000000000000e+02,8.270307599999999866e+02
3.880000000000000000e+02,8.271467300000000478e+02
3.890000000000000000e+02,8.272613499999999931e+02
3.900000000000000000e+02,8.273741499999999860e+02
3.910000000000000000e+02,8.274846800000000258e+02
3.920000000000000000e+02,8.275941800000000512e+02
3.930000000000000000e+02,8.277019000000000233e+02
3.940000000000000000e+02,8.278075599999999667e+02
3.950000000000000000e+02,8.279121099999999842e+02
3.960000000000000000e+02,8.280147100000000364e+02
3.970000000000000000e+02,8.281162100000000237e+02
3.980000000000000000e+02,8.282158799999999701e+02
3.990000000000000000e+02,8.283138999999999896e+02
4.000000000000000000e+02,8.284104599999999436e+02
4.010000000000000000e+02,8.285062299999999595e+02
4.020000000000000000e+02,8.285996099999999842e+02
4.030000000000000000e+02,8.286918899999999439e+02
4.040000000000000000e+02,8.287830800000000409e+02
4.050000000000000000e+02,8.288727999999999838e+02
4.060000000000000000e+02,8.289606899999999996e+02
4.070000000000000000e+02,8.290477300000000014e+02
4.080000000000000000e+02,8.291330600000000004e+02
4.090000000000000000e+02,8.292175899999999729e+02
4.100000000000000000e+02,8.293006000000000313e+02
4.110000000000000000e+02,8.293822000000000116e+02
4.120000000000000000e+02,8.294624000000000024e+02
4.130000000000000000e+02,8.295419900000000553e+02
4.140000000000000000e+02,8.296202399999999670e+02
4.150000000000000000e+02,8.296968399999999519e+02
4.160000000000000000e+02,8.297726400000000240e+02
4.170000000000000000e+02,8.298469800000000305e+02
4.180000000000000000e+02,8.299204099999999471e+02
4.190000000000000000e+02,8.299932300000000396e+02
4.200000000000000000e+02,8.300640899999999647e+02
4.210000000000000000e+02,8.301340900000000147e+02
4.220000000000000000e+02,8.302031899999999496e+02
4.230000000000000000e+02,8.302709999999999582e+02
4.240000000000000000e+02,8.303379499999999780e+02
4.250000000000000000e+02,8.304044199999999591e+02
4.260000000000000000e+02,8.304691199999999753e+02
4.270000000000000000e+02,8.305330199999999650e+02
4.280000000000000000e+02,8.305960700000000543e+02
4.290000000000000000e+02,8.306579600000000028e+02
4.300000000000000000e+02,8.307190600000000131e+02
4.310000000000000000e+02,8.307797199999999975e+02
4.320000000000000000e+02,8.308386799999999539e+02
4.330000000000000000e+02,8.308970299999999725e+02
4.340000000000000000e+02,8.309544700000000148e+02
4.350000000000000000e+02,8.310109300000000303e+02
4.360000000000000000e+02,8.310664699999999812e+02
4.370000000000000000e+02,8.311215799999999945e+02
4.380000000000000000e+02,8.311758999999999560e+02
4.390000000000000000e+02,8.312288800000000037e+02
4.400000000000000000e+02,8.312814300000000003e+02
4.410000000000000000e+02,8.313328900000000203e+02
4.420000000000000000e+02,8.313836099999999760e+02
4.430000000000000000e+02,8.314337199999999939e+02
4.440000000000000000e+02,8.314830899999999474e+02
4.450000000000000000e+02,8.315319799999999759e+02
4.460000000000000000e+02,8.315797099999999773e+02
4.470000000000000000e+02,8.316267699999999650e+02
4.480000000000000000e+02,8.316729699999999639e+02
4.490000000000000000e+02,8.317186900000000378e+02
4.500000000000000000e+02,8.317635500000000093e+02
4.510000000000000000e+02,8.318077399999999670e+02
4.520000000000000000e+02,8.318513199999999870e+02
4.530000000000000000e+02,8.318942899999999554e+02
4.540000000000000000e+02,8.319368899999999485e+02
4.550000000000000000e+02,8.319785200000000032e+02
4.560000000000000000e+02,8.320195300000000316e+02
4.570000000000000000e+02,8.320597500000000082e+02
4.580000000000000000e+02,8.320996699999999464e+02
4.590000000000000000e+02,8.321386700000000474e+02
4.600000000000000000e+02,8.321771899999999960e+02
4.610000000000000000e+02,8.322152099999999564e+02
4.620000000000000000e+02,8.322525000000000546e+02
4.630000000000000000e+02,8.322894300000000385e+02
4.640000000000000000e+02,8.323261700000000474e+02
4.650000000000000000e+02,8.323616899999999532e+02
4.660000000000000000e+02,8.323969100000000481e+02
4.670000000000000000e+02,8.324315199999999777e+02
4.680000000000000000e+02,8.324655800000000454e+02
4.690000000000000000e+02,8.324990199999999732e+02
4.700000000000000000e+02,8.325321699999999510e+02
4.710000000000000000e+02,8.325646400000000540e+02
4.720000000000000000e+02,8.325966799999999921e+02
4.730000000000000000e+02,8.326282999999999674e+02
4.740000000000000000e+02,8.326595499999999674e+02
4.750000000000000000e+02,8.326905500000000302e+02
4.760000000000000000e+02,8.327206400000000031e+02
4.770000000000000000e+02,8.327503699999999753e+02
4.780000000000000000e+02,8.327795399999999972e+02
4.790000000000000000e+02,8.328084099999999808e+02
4.800000000000000000e+02,8.328367299999999886e+02
4.810000000000000000e+02,8.328646199999999453e+02
4.820000000000000000e+02,8.328920900000000529e+02
4.830000000000000000e+02,8.329191299999999956e+02
4.840000000000000000e+02,8.329457400000000007e+02
4.850000000000000000e+02,8.329721100000000433e+02
4.860000000000000000e+02,8.329978599999999460e+02
4.870000000000000000e+02,8.330233200000000124e+02
4.880000000000000000e+02,8.330486499999999523e+02
4.890000000000000000e+02,8.330737299999999550e+02
4.900000000000000000e+02,8.330978999999999814e+02
4.910000000000000000e+02,8.331220100000000457e+02
4.920000000000000000e+02,8.331455099999999447e+02
4.930000000000000000e+02,8.331687600000000202e+02
4.940000000000000000e+02,8.331916499999999814e+02
4.950000000000000000e+02,8.332141100000000051e+02
4.960000000000000000e+02,8.332362699999999904e+02
4.970000000000000000e+02,8.332581199999999626e+02
4.980000000000000000e+02,8.332795999999999594e+02
4.990000000000000000e+02,8.333007800000000316e+02
5.000000000000000000e+02,8.333216599999999517e+02
5.010000000000000000e+02,8.333421600000000353e+02
5.020000000000000000e+02,8.333623700000000554e+02
5.030000000000000000e+02,8.333823200000000497e+02
5.040000000000000000e+02,8.334018600000000561e+02
5.050000000000000000e+02,8.334211400000000367e+02
5.060000000000000000e+02,8.334404299999999921e+02
5.070000000000000000e+02,8.334595299999999725e+02
5.080000000000000000e+02,8.334779099999999517e+02
5.090000000000000000e+02,8.334961499999999432e+02
5.100000000000000000e+02,8.335139799999999468e+02
5.110000000000000000e+02,8.335316199999999753e+02
5.120000000000000000e+02,8.335490099999999529e+02
5.130000000000000000e+02,8.335660400000000436e+02
5.140000000000000000e+02,8.335828199999999697e+02
5.150000000000000000e+02,8.335994299999999839e+02
5.160000000000000000e+02,8.336157200000000103e+02
5.170000000000000000e+02,8.336317699999999604e+02
5.180000000000000000e+02,8.336476400000000240e+02
5.190000000000000000e+02,8.336632100000000491e+02
5.200000000000000000e+02,8.336785300000000234e+02
5.210000000000000000e+02,8.336936600000000226e+02
5.220000000000000000e+02,8.337084999999999582e+02
5.230000000000000000e+02,8.337230799999999817e+02
5.240000000000000000e+02,8.337375500000000557e+02
5.250000000000000000e+02,8.337517699999999650e+02
5.260000000000000000e+02,8.337657500000000255e+02
5.270000000000000000e+02,8.337795399999999972e+02
5.280000000000000000e+02,8.337930300000000443e+02
5.290000000000000000e+02,8.338064000000000533e+02
5.300000000000000000e+02,8.338197599999999738e+02
5.310000000000000000e+02,8.338331299999999828e+02
5.320000000000000000e+02,8.338457600000000411e+02
5.330000000000000000e+02,8.338584600000000364e+02
5.340000000000000000e+02,8.338707900000000564e+02
5.350000000000000000e+02,8.338830000000000382e+02
5.360000000000000000e+02,8.338950200000000450e+02
5.370000000000000000e+02,8.339067999999999756e+02
5.380000000000000000e+02,8.339184599999999818e+02
5.390000000000000000e+02,8.339299300000000130e+02
5.400000000000000000e+02,8.339411599999999680e+02
5.410000000000000000e+02,8.339522699999999986e+02
5.420000000000000000e+02,8.339632599999999911e+02
5.430000000000000000e+02,8.339740000000000464e+02
5.440000000000000000e+02,8.339846199999999499e+02
5.450000000000000000e+02,8.339950599999999667e+02
5.460000000000000000e+02,8.340053100000000086e+02
5.470000000000000000e+02,8.340154400000000123e+02
5.480000000000000000e+02,8.340254499999999780e+02
5.490000000000000000e+02,8.340352799999999434e+02
5.500000000000000000e+02,8.340449200000000474e+02
5.510000000000000000e+02,8.340544999999999618e+02
5.520000000000000000e+02,8.340638400000000274e+02
5.530000000000000000e+02,8.340730600000000550e+02
5.540000000000000000e+02,8.340822100000000319e+02
5.550000000000000000e+02,8.340911300000000210e+02
5.560000000000000000e+02,8.340999100000000226e+02
5.570000000000000000e+02,8.341086400000000367e+02
5.580000000000000000e+02,8.341171900000000505e+02
5.590000000000000000e+02,8.341256100000000515e+02
5.600000000000000000e+02,8.341339100000000144e+02
5.610000000000000000e+02,8.341420900000000529e+02
5.620000000000000000e+02,8.341500899999999774e+02
5.630000000000000000e+02,8.341580199999999650e+02
5.640000000000000000e+02,8.341658300000000281e+02
5.650000000000000000e+02,8.341735200000000532e+02
5.660000000000000000e+02,8.341810900000000402e+02
5.670000000000000000e+02,8.341885399999999890e+02
5.680000000000000000e+02,8.341958600000000388e+02
5.690000000000000000e+02,8.342031200000000126e+02
5.700000000000000000e+02,8.342103899999999612e+02
5.710000000000000000e+02,8.342178300000000490e+02
5.720000000000000000e+02,8.342246699999999464e+02
5.730000000000000000e+02,8.342315099999999575e+02
5.740000000000000000e+02,8.342381599999999935e+02
5.750000000000000000e+02,8.342448100000000295e+02
5.760000000000000000e+02,8.342512799999999515e+02
5.770000000000000000e+02,8.342576900000000251e+02
5.780000000000000000e+02,8.342639799999999468e+02
5.790000000000000000e+02,8.342702000000000453e+02
5.800000000000000000e+02,8.342763099999999667e+02
5.810000000000000000e+02,8.342822899999999890e+02
5.820000000000000000e+02,8.342882100000000491e+02
5.830000000000000000e+02,8.342940099999999575e+02
5.840000000000000000e+02,8.342998000000000047e+02
5.850000000000000000e+02,8.343054200000000264e+02
5.860000000000000000e+02,8.343109699999999975e+02
5.870000000000000000e+02,8.343164699999999812e+02
5.880000000000000000e+02,8.343218399999999519e+02
5.890000000000000000e+02,8.343271499999999605e+02
5.900000000000000000e+02,8.343324000000000069e+02
5.910000000000000000e+02,8.343375200000000405e+02
5.920000000000000000e+02,8.343425899999999729e+02
5.930000000000000000e+02,8.343476600000000190e+02
5.940000000000000000e+02,8.343525399999999763e+02
5.950000000000000000e+02,8.343573599999999715e+02
5.960000000000000000e+02,8.343621799999999666e+02
5.970000000000000000e+02,8.343668800000000374e+02
5.980000000000000000e+02,8.343714599999999564e+02
5.990000000000000000e+02,8.343760399999999890e+02