# Time [s], Temperature [C]
1.000000000000000000e+00,2.500000000000000000e+01
2.000000000000000000e+00,2.500000000000000000e+01
3.000000000000000000e+00,2.500000000000000000e+01
4.000000000000000000e+00,2.500000000000000000e+01
5.000000000000000000e+00,2.500000000000000000e+01
6.000000000000000000e+00,2.500000000000000000e+01
7.000000000000000000e+00,2.500000199999999850e+01
8.000000000000000000e+00,2.500000800000000112e+01
9.000000000000000000e+00,2.500002299999999877e+01
1.000000000000000000e+01,2.500006300000000081e+01
1.100000000000000000e+01,2.500015600000000049e+01
1.200000000000000000e+01,2.500034899999999993e+01
1.300000000000000000e+01,2.500070799999999949e+01
1.400000000000000000e+01,2.500133299999999892e+01
1.500000000000000000e+01,2.500235199999999836e+01
1.600000000000000000e+01,2.500391600000000025e+01
1.700000000000000000e+01,2.500620999999999938e+01
1.800000000000000000e+01,2.500943399999999883e+01
1.900000000000000000e+01,2.501380299999999934e+01
2.000000000000000000e+01,2.501954699999999931e+01
2.100000000000000000e+01,2.502689399999999864e+01
2.200000000000000000e+01,2.503607699999999880e+01
2.300000000000000000e+01,2.504732500000000073e+01
2.400000000000000000e+01,2.506085200000000057e+01
2.500000000000000000e+01,2.507686800000000105e+01
2.600000000000000000e+01,2.509556800000000010e+01
2.700000000000000000e+01,2.511712999999999951e+01
2.800000000000000000e+01,2.514171999999999940e+01
2.900000000000000000e+01,2.516948299999999961e+01
3.000000000000000000e+01,2.520055400000000034e+01
3.100000000000000000e+01,2.523504600000000053e+01
3.200000000000000000e+01,2.527306400000000153e+01
3.300000000000000000e+01,2.531468999999999880e+01
3.400000000000000000e+01,2.535999299999999934e+01
3.500000000000000000e+01,2.540903700000000143e+01
3.600000000000000000e+01,2.546186099999999897e+01
3.700000000000000000e+01,2.551849699999999999e+01
3.800000000000000000e+01,2.557897000000000176e+01
3.900000000000000000e+01,2.564329299999999989e+01
4.000000000000000000e+01,2.571146999999999849e+01
4.100000000000000000e+01,2.578349100000000149e+01
4.200000000000000000e+01,2.585934800000000067e+01
4.300000000000000000e+01,2.593901599999999874e+01
4.400000000000000000e+01,2.602247200000000049e+01
4.500000000000000000e+01,2.610968400000000145e+01
4.600000000000000000e+01,2.620061499999999910e+01
4.700000000000000000e+01,2.629522899999999908e+01
4.800000000000000000e+01,2.639347499999999869e+01
4.900000000000000000e+01,2.649530599999999936e+01
5.000000000000000000e+01,2.660067599999999999e+01
5.100000000000000000e+01,2.670953000000000088e+01
5.200000000000000000e+01,2.682181200000000132e+01
5.300000000000000000e+01,2.693746200000000002e+01
5.400000000000000000e+01,2.705642900000000139e+01
5.500000000000000000e+01,2.717864600000000053e+01
5.600000000000000000e+01,2.730405599999999922e+01
5.700000000000000000e+01,2.743260000000000076e+01
5.800000000000000000e+01,2.756421299999999874e+01
5.900000000000000000e+01,2.769883199999999945e+01
6.000000000000000000e+01,2.783639700000000161e+01
6.100000000000000000e+01,2.797684699999999935e+01
6.200000000000000000e+01,2.812011499999999842e+01
6.300000000000000000e+01,2.826614599999999911e+01
6.400000000000000000e+01,2.841487300000000005e+01
6.500000000000000000e+01,2.856623799999999846e+01
6.600000000000000000e+01,2.872018399999999971e+01
6.700000000000000000e+01,2.887664600000000092e+01
6.800000000000000000e+01,2.903556599999999932e+01
6.900000000000000000e+01,2.919688599999999923e+01
7.000000000000000000e+01,2.936054599999999937e+01
7.100000000000000000e+01,2.952649500000000060e+01
7.200000000000000000e+01,2.969467200000000062e+01
7.300000000000000000e+01,2.986502300000000076e+01
7.400000000000000000e+01,3.003749300000000133e+01
7.500000000000000000e+01,3.021203200000000066e+01
7.600000000000000000e+01,3.038858400000000159e+01
7.700000000000000000e+01,3.056709899999999891e+01
7.800000000000000000e+01,3.074752799999999908e+01
7.900000000000000000e+01,3.092982100000000045e+01
8.000000000000000000e+01,3.111392999999999986e+01
8.100000000000000000e+01,3.129980099999999865e+01
8.200000000000000000e+01,3.148739600000000038e+01
8.300000000000000000e+01,3.167666200000000032e+01
8.400000000000000000e+01,3.186756099999999847e+01
8.500000000000000000e+01,3.206004300000000029e+01
8.600000000000000000e+01,3.225407400000000280e+01
8.700000000000000000e+01,3.244959999999999667e+01
8.800000000000000000e+01,3.264659100000000080e+01
8.900000000000000000e+01,3.284499699999999933e+01
9.000000000000000000e+01,3.304478799999999694e+01
9.100000000000000000e+01,3.324591800000000319e+01
9.200000000000000000e+01,3.344835700000000145e+01
9.300000000000000000e+01,3.365205799999999670e+01
9.400000000000000000e+01,3.385699499999999773e+01
9.500000000000000000e+01,3.406312599999999691e+01
9.600000000000000000e+01,3.427042000000000144e+01
9.700000000000000000e+01,3.447884400000000227e+01
9.800000000000000000e+01,3.468836199999999792e+01
9.900000000000000000e+01,3.489894499999999766e+01
1.000000000000000000e+02,3.511055799999999749e+01
1.010000000000000000e+02,3.532317700000000116e+01
1.020000000000000000e+02,3.553676600000000008e+01
1.030000000000000000e+02,3.575130099999999800e+01
1.040000000000000000e+02,3.596675100000000214e+01
1.050000000000000000e+02,3.618308999999999997e+01
1.060000000000000000e+02,3.640029100000000284e+01
1.070000000000000000e+02,3.661832799999999821e+01
1.080000000000000000e+02,3.683717000000000041e+01
1.090000000000000000e+02,3.705679700000000310e+01
1.100000000000000000e+02,3.727718000000000131e+01
1.110000000000000000e+02,3.749829900000000293e+01
1.120000000000000000e+02,3.772012300000000096e+01
1.130000000000000000e+02,3.794264600000000343e+01
1.140000000000000000e+02,3.816582900000000222e+01
1.150000000000000000e+02,3.838965999999999923e+01
1.160000000000000000e+02,3.861411700000000025e+01
1.170000000000000000e+02,3.883917199999999781e+01
1.180000000000000000e+02,3.906480799999999931e+01
1.190000000000000000e+02,3.929100799999999793e+01
1.200000000000000000e+02,3.951775399999999649e+01
1.210000000000000000e+02,3.974501800000000173e+01
1.220000000000000000e+02,3.997279400000000038e+01
1.230000000000000000e+02,4.020105699999999871e+01
1.240000000000000000e+02,4.042979400000000112e+01
1.250000000000000000e+02,4.065898500000000126e+01
1.260000000000000000e+02,4.088861099999999738e+01
1.270000000000000000e+02,4.111865999999999843e+01
1.280000000000000000e+02,4.134911300000000267e+01
1.290000000000000000e+02,4.157995600000000280e+01
1.300000000000000000e+02,4.181118399999999724e+01
1.310000000000000000e+02,4.204276300000000077e+01
1.320000000000000000e+02,4.227469299999999919e+01
1.330000000000000000e+02,4.250694699999999671e+01
1.340000000000000000e+02,4.273952899999999744e+01
1.350000000000000000e+02,4.297241600000000261e+01
1.360000000000000000e+02,4.320559300000000036e+01
1.370000000000000000e+02,4.343905600000000078e+01
1.380000000000000000e+02,4.367277899999999846e+01
1.390000000000000000e+02,4.390676100000000304e+01
1.400000000000000000e+02,4.414098400000000311e+01
1.410000000000000000e+02,4.437544599999999662e+01
1.420000000000000000e+02,4.461012999999999806e+01
1.430000000000000000e+02,4.484501999999999811e+01
1.440000000000000000e+02,4.508011599999999675e+01
1.450000000000000000e+02,4.531539899999999932e+01
1.460000000000000000e+02,4.555086099999999760e+01
1.470000000000000000e+02,4.578649500000000216e+01
1.480000000000000000e+02,4.602229299999999768e+01
1.490000000000000000e+02,4.625824000000000069e+01
1.500000000000000000e+02,4.649432800000000299e+01
1.510000000000000000e+02,4.673054900000000345e+01
1.520000000000000000e+02,4.696689599999999842e+01
1.530000000000000000e+02,4.720336199999999849e+01
1.540000000000000000e+02,4.743993799999999794e+01
1.550000000000000000e+02,4.767660500000000212e+01
1.560000000000000000e+02,4.791336799999999840e+01
1.570000000000000000e+02,4.815021500000000287e+01
1.580000000000000000e+02,4.838714199999999721e+01
1.590000000000000000e+02,4.862414600000000320e+01
1.600000000000000000e+02,4.886120199999999869e+01
1.610000000000000000e+02,4.909832000000000107e+01
1.620000000000000000e+02,4.933548400000000100e+01
1.630000000000000000e+02,4.957268899999999689e+01
1.640000000000000000e+02,4.980993999999999744e+01
1.650000000000000000e+02,5.004721099999999723e+01
1.660000000000000000e+02,5.028451199999999943e+01
1.670000000000000000e+02,5.052182799999999929e+01
1.680000000000000000e+02,5.075915899999999681e+01
1.690000000000000000e+02,5.099649399999999844e+01
1.700000000000000000e+02,5.123383299999999707e+01
1.710000000000000000e+02,5.147117200000000281e+01
1.720000000000000000e+02,5.170849599999999668e+01
1.730000000000000000e+02,5.194580799999999954e+01
1.740000000000000000e+02,5.218309800000000109e+01
1.750000000000000000e+02,5.242036800000000341e+01
1.760000000000000000e+02,5.265760800000000330e+01
1.770000000000000000e+02,5.289480999999999966e+01
1.780000000000000000e+02,5.313197699999999912e+01
1.790000000000000000e+02,5.336910199999999804e+01
1.800000000000000000e+02,5.360618600000000100e+01
1.810000000000000000e+02,5.384321599999999819e+01
1.820000000000000000e+02,5.408018899999999718e+01
1.830000000000000000e+02,5.431710400000000050e+01
1.840000000000000000e+02,5.455395500000000197e+01
1.850000000000000000e+02,5.479074500000000114e+01
1.860000000000000000e+02,5.502746599999999688e+01
1.870000000000000000e+02,5.526410700000000276e+01
1.880000000000000000e+02,5.550067500000000109e+01
1.890000000000000000e+02,5.573716000000000292e+01
1.900000000000000000e+02,5.597356400000000320e+01
1.910000000000000000e+02,5.620988799999999941e+01
1.920000000000000000e+02,5.644611400000000145e+01
1.930000000000000000e+02,5.668225100000000083e+01
1.940000000000000000e+02,5.691828499999999735e+01
1.950000000000000000e+02,5.715422800000000336e+01
1.960000000000000000e+02,5.739006400000000241e+01
1.970000000000000000e+02,5.762580100000000272e+01
1.980000000000000000e+02,5.786143100000000317e+01
1.990000000000000000e+02,5.809694700000000012e+01
2.000000000000000000e+02,5.833235499999999973e+01
2.010000000000000000e+02,5.856764600000000343e+01
2.020000000000000000e+02,5.880282199999999904e+01
2.030000000000000000e+02,5.903788000000000125e+01
2.040000000000000000e+02,5.927281200000000183e+01
2.050000000000000000e+02,5.950762199999999780e+01
2.060000000000000000e+02,5.974230599999999924e+01
2.070000000000000000e+02,5.997686000000000206e+01
2.080000000000000000e+02,6.021129200000000026e+01
2.090000000000000000e+02,6.044558299999999917e+01
2.100000000000000000e+02,6.067974099999999993e+01
2.110000000000000000e+02,6.091376100000000093e+01
2.120000000000000000e+02,6.114764799999999667e+01
2.130000000000000000e+02,6.138139699999999976e+01
2.140000000000000000e+02,6.161500199999999694e+01
2.150000000000000000e+02,6.184846499999999736e+01
2.160000000000000000e+02,6.208177899999999738e+01
2.170000000000000000e+02,6.231494899999999859e+01
2.180000000000000000e+02,6.254796600000000240e+01
2.190000000000000000e+02,6.278083800000000281e+01
2.200000000000000000e+02,6.301356499999999983e+01
2.210000000000000000e+02,6.324612799999999879e+01
2.220000000000000000e+02,6.347854199999999736e+01
2.230000000000000000e+02,6.371079600000000198e+01
2.240000000000000000e+02,6.394289799999999957e+01
2.250000000000000000e+02,6.417484299999999564e+01
2.260000000000000000e+02,6.440662399999999366e+01
2.270000000000000000e+02,6.463825199999999427e+01
2.280000000000000000e+02,6.486971300000000440e+01
2.290000000000000000e+02,6.510100599999999815e+01
2.300000000000000000e+02,6.533213800000000049e+01
2.310000000000000000e+02,6.556310999999999467e+01
2.320000000000000000e+02,6.579390700000000436e+01
2.330000000000000000e+02,6.602454400000000589e+01
2.340000000000000000e+02,6.625501300000000526e+01
2.350000000000000000e+02,6.648530599999999424e+01
2.360000000000000000e+02,6.671543099999999527e+01
2.370000000000000000e+02,6.694538099999999758e+01
2.380000000000000000e+02,6.717516299999999774e+01
2.390000000000000000e+02,6.740476999999999919e+01
2.400000000000000000e+02,6.763420100000000446e+01
2.410000000000000000e+02,6.786345699999999681e+01
2.420000000000000000e+02,6.809253699999999299e+01
2.430000000000000000e+02,6.832144200000000467e+01
2.440000000000000000e+02,6.855016299999999774e+01
2.450000000000000000e+02,6.877871700000000033e+01
2.460000000000000000e+02,6.900708000000000197e+01
2.470000000000000000e+02,6.923527500000000146e+01
2.480000000000000000e+02,6.946327999999999747e+01
2.490000000000000000e+02,6.969110100000000330e+01
2.500000000000000000e+02,6.991874699999999621e+01
2.510000000000000000e+02,7.014620999999999640e+01
2.520000000000000000e+02,7.037348900000000640e+01
2.530000000000000000e+02,7.060058600000000695e+01
2.540000000000000000e+02,7.082749200000000656e+01
2.550000000000000000e+02,7.105422199999999577e+01
2.560000000000000000e+02,7.128076199999999574e+01
2.570000000000000000e+02,7.150711099999999476e+01
2.580000000000000000e+02,7.173327600000000359e+01
2.590000000000000000e+02,7.195925099999999475e+01
2.600000000000000000e+02,7.218504299999999319e+01
2.610000000000000000e+02,7.241064500000000237e+01
2.620000000000000000e+02,7.263606299999999294e+01
2.630000000000000000e+02,7.286128999999999678e+01
2.640000000000000000e+02,7.308631900000000314e+01
2.650000000000000000e+02,7.331116500000000258e+01
2.660000000000000000e+02,7.353582000000000107e+01
2.670000000000000000e+02,7.376027700000000209e+01
2.680000000000000000e+02,7.398454999999999870e+01
2.690000000000000000e+02,7.420862599999999532e+01
2.700000000000000000e+02,7.443251800000000173e+01
2.710000000000000000e+02,7.465621199999999646e+01
2.720000000000000000e+02,7.487971500000000447e+01
2.730000000000000000e+02,7.510302000000000078e+01
2.740000000000000000e+02,7.532613399999999615e+01
2.750000000000000000e+02,7.554905700000000479e+01
2.760000000000000000e+02,7.577178200000000174e+01
2.770000000000000000e+02,7.599430800000000374e+01
2.780000000000000000e+02,7.621665199999999629e+01
2.790000000000000000e+02,7.643878899999999987e+01
2.800000000000000000e+02,7.666073599999999999e+01
2.810000000000000000e+02,7.688248400000000515e+01
2.820000000000000000e+02,7.710403399999999863e+01
2.830000000000000000e+02,7.732539400000000285e+01
2.840000000000000000e+02,7.754655499999999790e+01
2.850000000000000000e+02,7.776750900000000399e+01
2.860000000000000000e+02,7.798828100000000063e+01
2.870000000000000000e+02,7.820885499999999979e+01
2.880000000000000000e+02,7.842922199999999577e+01
2.890000000000000000e+02,7.864939900000000250e+01
2.900000000000000000e+02,7.886937000000000353e+01
2.910000000000000000e+02,7.908914199999999539e+01
2.920000000000000000e+02,7.930872300000000052e+01
2.930000000000000000e+02,7.952809899999999743e+01
2.940000000000000000e+02,7.974727599999999939e+01
2.950000000000000000e+02,7.996626299999999787e+01
2.960000000000000000e+02,8.018504299999999319e+01
2.970000000000000000e+02,8.040362500000000523e+01
2.980000000000000000e+02,8.062201699999999960e+01
2.990000000000000000e+02,8.084019499999999425e+01
3.000000000000000000e+02,8.105818200000000218e+01
3.010000000000000000e+02,8.127596300000000440e+01
3.020000000000000000e+02,8.149354599999999493e+01
3.030000000000000000e+02,8.171092199999999650e+01
3.040000000000000000e+02,8.192810799999999460e+01
3.050000000000000000e+02,8.214508100000000468e+01
3.060000000000000000e+02,8.236186200000000213e+01
3.070000000000000000e+02,8.257844500000000210e+01
3.080000000000000000e+02,8.279482299999999384e+01
3.090000000000000000e+02,8.301100900000000138e+01
3.100000000000000000e+02,8.322698200000000668e+01
3.110000000000000000e+02,8.344275700000000029e+01
3.120000000000000000e+02,8.365832500000000493e+01
3.130000000000000000e+02,8.387369499999999789e+01
3.140000000000000000e+02,8.408886699999999337e+01
3.150000000000000000e+02,8.430383299999999736e+01
3.160000000000000000e+02,8.451859299999999564e+01
3.170000000000000000e+02,8.473316199999999299e+01
3.180000000000000000e+02,8.494751700000000483e+01
3.190000000000000000e+02,8.516167400000000498e+01
3.200000000000000000e+02,8.537563299999999344e+01
3.210000000000000000e+02,8.558938600000000463e+01
3.220000000000000000e+02,8.580294000000000665e+01
3.230000000000000000e+02,8.601629599999999698e+01
3.240000000000000000e+02,8.622944599999999582e+01
3.250000000000000000e+02,8.644239000000000317e+01
3.260000000000000000e+02,8.665512800000000482e+01
3.270000000000000000e+02,8.686766799999999478e+01
3.280000000000000000e+02,8.708000199999999325e+01
3.290000000000000000e+02,8.729213000000000022e+01
3.300000000000000000e+02,8.750405899999999804e+01
3.310000000000000000e+02,8.771578200000000436e+01
3.320000000000000000e+02,8.792730699999999899e+01
3.330000000000000000e+02,8.813861799999999391e+01
3.340000000000000000e+02,8.834973100000000557e+01
3.350000000000000000e+02,8.856064600000000553e+01
3.360000000000000000e+02,8.877135499999999979e+01
3.370000000000000000e+02,8.898185700000000509e+01
3.380000000000000000e+02,8.919215400000000216e+01
3.390000000000000000e+02,8.940225200000000427e+01
3.400000000000000000e+02,8.961214400000000069e+01
3.410000000000000000e+02,8.982183799999999962e+01
3.420000000000000000e+02,9.003133400000000108e+01
3.430000000000000000e+02,9.024061600000000283e+01
3.440000000000000000e+02,9.044969899999999541e+01
3.450000000000000000e+02,9.065857699999999397e+01
3.460000000000000000e+02,9.086724900000000105e+01
3.470000000000000000e+02,9.107571400000000494e+01
3.480000000000000000e+02,9.128398099999999715e+01
3.490000000000000000e+02,9.149204299999999535e+01
3.500000000000000000e+02,9.169988999999999635e+01
3.510000000000000000e+02,9.190754699999999389e+01
3.520000000000000000e+02,9.211499000000000592e+01
3.530000000000000000e+02,9.232223500000000627e+01
3.540000000000000000e+02,9.252927400000000091e+01
3.550000000000000000e+02,9.273610700000000406e+01
3.560000000000000000e+02,9.294273400000000152e+01
3.570000000000000000e+02,9.314915499999999327e+01
3.580000000000000000e+02,9.335537700000000427e+01
3.590000000000000000e+02,9.356139400000000705e+01
3.600000000000000000e+02,9.376719699999999591e+01
3.610000000000000000e+02,9.397280899999999804e+01
3.620000000000000000e+02,9.417820700000000045e+01
3.630000000000000000e+02,9.438339999999999463e+01
3.640000000000000000e+02,9.458839399999999387e+01
3.650000000000000000e+02,9.479317500000000507e+01
3.660000000000000000e+02,9.499775699999999290e+01
3.670000000000000000e+02,9.520213300000000345e+01
3.680000000000000000e+02,9.540630299999999409e+01
3.690000000000000000e+02,9.561026800000000492e+01
3.700000000000000000e+02,9.581403400000000659e+01
3.710000000000000000e+02,9.601758599999999433e+01
3.720000000000000000e+02,9.622093200000000479e+01
3.730000000000000000e+02,9.642408000000000357e+01
3.740000000000000000e+02,9.662701400000000262e+01
3.750000000000000000e+02,9.682975000000000421e+01
3.760000000000000000e+02,9.703227200000000607e+01
3.770000000000000000e+02,9.723459599999999625e+01
3.780000000000000000e+02,9.743670699999999840e+01
3.790000000000000000e+02,9.763861799999999391e+01
3.800000000000000000e+02,9.784031699999999887e+01
3.810000000000000000e+02,9.804181699999999466e+01
3.820000000000000000e+02,9.824310300000000495e+01
3.830000000000000000e+02,9.844419100000000356e+01
3.840000000000000000e+02,9.864506500000000244e+01
3.850000000000000000e+02,9.884574100000000385e+01
3.860000000000000000e+02,9.904620400000000302e+01
3.870000000000000000e+02,9.924645999999999901e+01
3.880000000000000000e+02,9.944651799999999753e+01
3.890000000000000000e+02,9.964636199999999633e+01
3.900000000000000000e+02,9.984600100000000111e+01
3.910000000000000000e+02,1.000454299999999961e+02
3.920000000000000000e+02,1.002446499999999929e+02
3.930000000000000000e+02,1.004436599999999942e+02
3.940000000000000000e+02,1.006424800000000062e+02
3.950000000000000000e+02,1.008410800000000052e+02
3.960000000000000000e+02,1.010394699999999943e+02
3.970000000000000000e+02,1.012376600000000053e+02
3.980000000000000000e+02,1.014356400000000065e+02
3.990000000000000000e+02,1.016334099999999978e+02
4.000000000000000000e+02,1.018309799999999967e+02
4.010000000000000000e+02,1.020283299999999969e+02
4.020000000000000000e+02,1.022254700000000014e+02
4.030000000000000000e+02,1.024224099999999993e+02
4.040000000000000000e+02,1.026191400000000016e+02
4.050000000000000000e+02,1.028156599999999941e+02
4.060000000000000000e+02,1.030119700000000051e+02
4.070000000000000000e+02,1.032080799999999954e+02
4.080000000000000000e+02,1.034039599999999979e+02
4.090000000000000000e+02,1.035996499999999969e+02
4.100000000000000000e+02,1.037951300000000003e+02
4.110000000000000000e+02,1.039903900000000050e+02
4.120000000000000000e+02,1.041854500000000030e+02
4.130000000000000000e+02,1.043802900000000022e+02
4.140000000000000000e+02,1.045749299999999948e+02
4.150000000000000000e+02,1.047693600000000060e+02
4.160000000000000000e+02,1.049635700000000043e+02
4.170000000000000000e+02,1.051575700000000069e+02
4.180000000000000000e+02,1.053513599999999997e+02
4.190000000000000000e+02,1.055449399999999969e+02
4.200000000000000000e+02,1.057383200000000016e+02
4.210000000000000000e+02,1.059314700000000045e+02
4.220000000000000000e+02,1.061244200000000006e+02
4.230000000000000000e+02,1.063171499999999980e+02
4.240000000000000000e+02,1.065096699999999998e+02
4.250000000000000000e+02,1.067019899999999950e+02
4.260000000000000000e+02,1.068940800000000024e+02
4.270000000000000000e+02,1.070859700000000032e+02
4.280000000000000000e+02,1.072776400000000052e+02
4.290000000000000000e+02,1.074690899999999942e+02
4.300000000000000000e+02,1.076603400000000050e+02
4.310000000000000000e+02,1.078513599999999997e+02
4.320000000000000000e+02,1.080421800000000019e+02
4.330000000000000000e+02,1.082327800000000053e+02
4.340000000000000000e+02,1.084231599999999958e+02
4.350000000000000000e+02,1.086133300000000048e+02
4.360000000000000000e+02,1.088032900000000041e+02
4.370000000000000000e+02,1.089930300000000045e+02
4.380000000000000000e+02,1.091825599999999952e+02
4.390000000000000000e+02,1.093718599999999981e+02
4.400000000000000000e+02,1.095609599999999944e+02
4.410000000000000000e+02,1.097498300000000029e+02
4.420000000000000000e+02,1.099384900000000016e+02
4.430000000000000000e+02,1.101269300000000015e+02
4.440000000000000000e+02,1.103151600000000059e+02
4.450000000000000000e+02,1.105031599999999941e+02
4.460000000000000000e+02,1.106909399999999977e+02
4.470000000000000000e+02,1.108785100000000057e+02
4.480000000000000000e+02,1.110658600000000007e+02
4.490000000000000000e+02,1.112529799999999938e+02
4.500000000000000000e+02,1.114398999999999944e+02
4.510000000000000000e+02,1.116265800000000041e+02
4.520000000000000000e+02,1.118130500000000040e+02
4.530000000000000000e+02,1.119992900000000020e+02
4.540000000000000000e+02,1.121853100000000012e+02
4.550000000000000000e+02,1.123711200000000048e+02
4.560000000000000000e+02,1.125566900000000032e+02
4.570000000000000000e+02,1.127420599999999951e+02
4.580000000000000000e+02,1.129271899999999960e+02
4.590000000000000000e+02,1.131121100000000013e+02
4.600000000000000000e+02,1.132967900000000014e+02
4.610000000000000000e+02,1.134812500000000028e+02
4.620000000000000000e+02,1.136654900000000055e+02
4.630000000000000000e+02,1.138495000000000061e+02
4.640000000000000000e+02,1.140332899999999938e+02
4.650000000000000000e+02,1.142168400000000048e+02
4.660000000000000000e+02,1.144001800000000060e+02
4.670000000000000000e+02,1.145832800000000020e+02
4.680000000000000000e+02,1.147661599999999993e+02
4.690000000000000000e+02,1.149488099999999946e+02
4.700000000000000000e+02,1.151312300000000022e+02
4.710000000000000000e+02,1.153134199999999936e+02
4.720000000000000000e+02,1.154953799999999973e+02
4.730000000000000000e+02,1.156771200000000022e+02
4.740000000000000000e+02,1.158586200000000019e+02
4.750000000000000000e+02,1.160398899999999998e+02
4.760000000000000000e+02,1.162209200000000067e+02
4.770000000000000000e+02,1.164017300000000006e+02
4.780000000000000000e+02,1.165822900000000004e+02
4.790000000000000000e+02,1.167626300000000015e+02
4.800000000000000000e+02,1.169427299999999974e+02
4.810000000000000000e+02,1.171226000000000056e+02
4.820000000000000000e+02,1.173022200000000055e+02
4.830000000000000000e+02,1.174816200000000066e+02
4.840000000000000000e+02,1.176607800000000026e+02
4.850000000000000000e+02,1.178396999999999935e+02
4.860000000000000000e+02,1.180183799999999934e+02
4.870000000000000000e+02,1.181968200000000024e+02
4.880000000000000000e+02,1.183750200000000063e+02
4.890000000000000000e+02,1.185529899999999941e+02
4.900000000000000000e+02,1.187307100000000020e+02
4.910000000000000000e+02,1.189081900000000047e+02
4.920000000000000000e+02,1.190854300000000023e+02
4.930000000000000000e+02,1.192624200000000059e+02
4.940000000000000000e+02,1.194391700000000043e+02
4.950000000000000000e+02,1.196156799999999976e+02
4.960000000000000000e+02,1.197919299999999936e+02
4.970000000000000000e+02,1.199679500000000019e+02
4.980000000000000000e+02,1.201437099999999987e+02
4.990000000000000000e+02,1.203192300000000046e+02
5.000000000000000000e+02,1.204945000000000022e+02
5.010000000000000000e+02,1.206695299999999946e+02
5.020000000000000000e+02,1.208442900000000009e+02
5.030000000000000000e+02,1.210188100000000020e+02
5.040000000000000000e+02,1.211930799999999948e+02
5.050000000000000000e+02,1.213670999999999935e+02
5.060000000000000000e+02,1.215408599999999950e+02
5.070000000000000000e+02,1.217143599999999992e+02
5.080000000000000000e+02,1.218876199999999983e+02
5.090000000000000000e+02,1.220606200000000001e+02
5.100000000000000000e+02,1.222333500000000015e+02
5.110000000000000000e+02,1.224058399999999978e+02
5.120000000000000000e+02,1.225780599999999936e+02
5.130000000000000000e+02,1.227500200000000063e+02
5.140000000000000000e+02,1.229217100000000045e+02
5.150000000000000000e+02,1.230931599999999975e+02
5.160000000000000000e+02,1.232643400000000042e+02
5.170000000000000000e+02,1.234352499999999964e+02
5.180000000000000000e+02,1.236059000000000054e+02
5.190000000000000000e+02,1.237762799999999999e+02
5.200000000000000000e+02,1.239463999999999970e+02
5.210000000000000000e+02,1.241162499999999937e+02
5.220000000000000000e+02,1.242858300000000042e+02
5.230000000000000000e+02,1.244551400000000001e+02
5.240000000000000000e+02,1.246241799999999955e+02
5.250000000000000000e+02,1.247929500000000047e+02
5.260000000000000000e+02,1.249614399999999961e+02
5.270000000000000000e+02,1.251296600000000012e+02
5.280000000000000000e+02,1.252976100000000059e+02
5.290000000000000000e+02,1.254652700000000038e+02
5.300000000000000000e+02,1.256326700000000045e+02
5.310000000000000000e+02,1.257997699999999952e+02
5.320000000000000000e+02,1.259666100000000029e+02
5.330000000000000000e+02,1.261331600000000037e+02
5.340000000000000000e+02,1.262994400000000041e+02
5.350000000000000000e+02,1.264654199999999946e+02
5.360000000000000000e+02,1.266311299999999989e+02
5.370000000000000000e+02,1.267965499999999963e+02
5.380000000000000000e+02,1.269616800000000012e+02
5.390000000000000000e+02,1.271265300000000025e+02
5.400000000000000000e+02,1.272910799999999938e+02
5.410000000000000000e+02,1.274553499999999957e+02
5.420000000000000000e+02,1.276193200000000019e+02
5.430000000000000000e+02,1.277829899999999981e+02
5.440000000000000000e+02,1.279463800000000049e+02
5.450000000000000000e+02,1.281094699999999875e+02
5.460000000000000000e+02,1.282722599999999886e+02
5.470000000000000000e+02,1.284347500000000082e+02
5.480000000000000000e+02,1.285969499999999925e+02
5.490000000000000000e+02,1.287588499999999954e+02
5.500000000000000000e+02,1.289204400000000135e+02
5.510000000000000000e+02,1.290817299999999932e+02
5.520000000000000000e+02,1.292427099999999882e+02
5.530000000000000000e+02,1.294034000000000049e+02
5.540000000000000000e+02,1.295637700000000052e+02
5.550000000000000000e+02,1.297238199999999892e+02
5.560000000000000000e+02,1.298835799999999949e+02
5.570000000000000000e+02,1.300430100000000095e+02
5.580000000000000000e+02,1.302021300000000110e+02
5.590000000000000000e+02,1.303609500000000025e+02
5.600000000000000000e+02,1.305194500000000062e+02
5.610000000000000000e+02,1.306776299999999935e+02
5.620000000000000000e+02,1.308354799999999898e+02
5.630000000000000000e+02,1.309930300000000045e+02
5.640000000000000000e+02,1.311502399999999966e+02
5.650000000000000000e+02,1.313071300000000008e+02
5.660000000000000000e+02,1.314636999999999887e+02
5.670000000000000000e+02,1.316199499999999887e+02
5.680000000000000000e+02,1.317758599999999944e+02
5.690000000000000000e+02,1.319314400000000091e+02
5.700000000000000000e+02,1.320867000000000075e+02
5.710000000000000000e+02,1.322416200000000117e+02
5.720000000000000000e+02,1.323962099999999964e+02
5.730000000000000000e+02,1.325504599999999868e+02
5.740000000000000000e+02,1.327043799999999862e+02
5.750000000000000000e+02,1.328579599999999914e+02
5.760000000000000000e+02,1.330111799999999960e+02
5.770000000000000000e+02,1.331640800000000127e+02
5.780000000000000000e+02,1.333166200000000003e+02
5.790000000000000000e+02,1.334688299999999970e+02
5.800000000000000000e+02,1.336206799999999930e+02
5.810000000000000000e+02,1.337721999999999980e+02
5.820000000000000000e+02,1.339233600000000024e+02
5.830000000000000000e+02,1.340741700000000094e+02
5.840000000000000000e+02,1.342246199999999874e+02
5.850000000000000000e+02,1.343747299999999996e+02
5.860000000000000000e+02,1.345244600000000048e+02
5.870000000000000000e+02,1.346738400000000127e+02
5.880000000000000000e+02,1.348228799999999978e+02
5.890000000000000000e+02,1.349715300000000013e+02
5.900000000000000000e+02,1.351198400000000106e+02
5.910000000000000000e+02,1.352677799999999877e+02
5.920000000000000000e+02,1.354153399999999863e+02
5.930000000000000000e+02,1.355625499999999874e+02
5.940000000000000000e+02,1.357093700000000069e+02
5.950000000000000000e+02,1.358558299999999974e+02
5.960000000000000000e+02,1.360019200000000126e+02
5.970000000000000000e+02,1.361476299999999924e+02
5.980000000000000000e+02,1.362929699999999968e+02
5.990000000000000000e+02,1.364379299999999944e+02