# Time [s], Temperature [C]
1.000000000000000000e+00,2.500000000000000000e+01
2.000000000000000000e+00,2.500000000000000000e+01
3.000000000000000000e+00,2.500000000000000000e+01
4.000000000000000000e+00,2.500000000000000000e+01
5.000000000000000000e+00,2.500000599999999906e+01
6.000000000000000000e+00,2.500003200000000092e+01
7.000000000000000000e+00,2.500013699999999872e+01
8.000000000000000000e+00,2.500047299999999950e+01
9.000000000000000000e+00,2.500139199999999917e+01
1.000000000000000000e+01,2.500357400000000041e+01
1.100000000000000000e+01,2.500816500000000175e+01
1.200000000000000000e+01,2.501688800000000157e+01
1.300000000000000000e+01,2.503209299999999971e+01
1.400000000000000000e+01,2.505673399999999873e+01
1.500000000000000000e+01,2.509428000000000125e+01
1.600000000000000000e+01,2.514859399999999923e+01
1.700000000000000000e+01,2.522378700000000151e+01
1.800000000000000000e+01,2.532407200000000103e+01
1.900000000000000000e+01,2.545363400000000098e+01
2.000000000000000000e+01,2.561651799999999923e+01
2.100000000000000000e+01,2.581654500000000141e+01
2.200000000000000000e+01,2.605724700000000027e+01
2.300000000000000000e+01,2.634182200000000051e+01
2.400000000000000000e+01,2.667309200000000047e+01
2.500000000000000000e+01,2.705350299999999919e+01
2.600000000000000000e+01,2.748516100000000151e+01
2.700000000000000000e+01,2.796976300000000037e+01
2.800000000000000000e+01,2.854132500000000050e+01
2.900000000000000000e+01,2.915205999999999875e+01
3.000000000000000000e+01,2.981513599999999897e+01
3.100000000000000000e+01,3.053358499999999864e+01
3.200000000000000000e+01,3.130782900000000168e+01
3.300000000000000000e+01,3.213796200000000169e+01
3.400000000000000000e+01,3.302374600000000271e+01
3.500000000000000000e+01,3.396470599999999962e+01
3.600000000000000000e+01,3.496015899999999732e+01
3.700000000000000000e+01,3.600931500000000085e+01
3.800000000000000000e+01,3.711115999999999815e+01
3.900000000000000000e+01,3.826456799999999703e+01
4.000000000000000000e+01,3.946830700000000292e+01
4.100000000000000000e+01,4.072102399999999989e+01
4.200000000000000000e+01,4.202123999999999882e+01
4.300000000000000000e+01,4.336743500000000040e+01
4.400000000000000000e+01,4.475802999999999798e+01
4.500000000000000000e+01,4.619125700000000023e+01
4.600000000000000000e+01,4.766547400000000323e+01
4.700000000000000000e+01,4.917891699999999844e+01
4.800000000000000000e+01,5.072981599999999958e+01
4.900000000000000000e+01,5.231641799999999876e+01
5.000000000000000000e+01,5.393696599999999819e+01
5.100000000000000000e+01,5.558970999999999663e+01
5.200000000000000000e+01,5.727296799999999877e+01
5.300000000000000000e+01,5.898511899999999741e+01
5.400000000000000000e+01,6.072456700000000041e+01
5.500000000000000000e+01,6.248965100000000206e+01
5.600000000000000000e+01,6.427895399999999881e+01
5.700000000000000000e+01,6.609093500000000176e+01
5.800000000000000000e+01,6.792431600000000458e+01
5.900000000000000000e+01,6.977761800000000392e+01
6.000000000000000000e+01,7.164968100000000106e+01
6.100000000000000000e+01,7.353926099999999622e+01
6.200000000000000000e+01,7.544516799999999535e+01
6.300000000000000000e+01,7.736627199999999505e+01
6.400000000000000000e+01,7.930161300000000324e+01
6.500000000000000000e+01,8.125013699999999517e+01
6.600000000000000000e+01,8.321088399999999297e+01
6.700000000000000000e+01,8.518296100000000592e+01
6.800000000000000000e+01,8.716552000000000078e+01
6.900000000000000000e+01,8.915776099999999360e+01
7.000000000000000000e+01,9.115889699999999607e+01
7.100000000000000000e+01,9.316822100000000262e+01
7.200000000000000000e+01,9.518503599999999665e+01
7.300000000000000000e+01,9.720871699999999294e+01
7.400000000000000000e+01,9.923863199999999551e+01
7.500000000000000000e+01,1.012741999999999933e+02
7.600000000000000000e+01,1.033148599999999959e+02
7.700000000000000000e+01,1.053600899999999996e+02
7.800000000000000000e+01,1.074094000000000051e+02
7.900000000000000000e+01,1.094628000000000014e+02
8.000000000000000000e+01,1.115191499999999962e+02
8.100000000000000000e+01,1.135781900000000064e+02
8.200000000000000000e+01,1.156395299999999935e+02
8.300000000000000000e+01,1.177028300000000058e+02
8.400000000000000000e+01,1.197677599999999956e+02
8.500000000000000000e+01,1.218340800000000002e+02
8.600000000000000000e+01,1.239016500000000036e+02
8.700000000000000000e+01,1.259702199999999976e+02
8.800000000000000000e+01,1.280396599999999978e+02
8.900000000000000000e+01,1.301097900000000038e+02
9.000000000000000000e+01,1.321804500000000075e+02
9.100000000000000000e+01,1.342514500000000055e+02
9.200000000000000000e+01,1.363225600000000099e+02
9.300000000000000000e+01,1.383934000000000140e+02
9.400000000000000000e+01,1.404638099999999952e+02
9.500000000000000000e+01,1.425334799999999973e+02
9.600000000000000000e+01,1.446021700000000010e+02
9.700000000000000000e+01,1.466696799999999996e+02
9.800000000000000000e+01,1.487357000000000085e+02
9.900000000000000000e+01,1.508000499999999988e+02
1.000000000000000000e+02,1.528624700000000018e+02
1.010000000000000000e+02,1.549227600000000109e+02
1.020000000000000000e+02,1.569806800000000067e+02
1.030000000000000000e+02,1.590360400000000141e+02
1.040000000000000000e+02,1.610886199999999917e+02
1.050000000000000000e+02,1.631382299999999930e+02
1.060000000000000000e+02,1.651846600000000080e+02
1.070000000000000000e+02,1.672277100000000019e+02
1.080000000000000000e+02,1.692672100000000057e+02
1.090000000000000000e+02,1.713029899999999941e+02
1.100000000000000000e+02,1.733348699999999951e+02
1.110000000000000000e+02,1.753626600000000053e+02
1.120000000000000000e+02,1.773861699999999928e+02
1.130000000000000000e+02,1.794052299999999889e+02
1.140000000000000000e+02,1.814196000000000026e+02
1.150000000000000000e+02,1.834291499999999928e+02
1.160000000000000000e+02,1.854337299999999971e+02
1.170000000000000000e+02,1.874331500000000119e+02
1.180000000000000000e+02,1.894272499999999866e+02
1.190000000000000000e+02,1.914158299999999997e+02
1.200000000000000000e+02,1.933987600000000100e+02
1.210000000000000000e+02,1.953762800000000084e+02
1.220000000000000000e+02,1.973475799999999936e+02
1.230000000000000000e+02,1.993125799999999970e+02
1.240000000000000000e+02,2.012712199999999996e+02
1.250000000000000000e+02,2.032235000000000014e+02
1.260000000000000000e+02,2.051693899999999928e+02
1.270000000000000000e+02,2.071089299999999866e+02
1.280000000000000000e+02,2.090420100000000048e+02
1.290000000000000000e+02,2.109685100000000091e+02
1.300000000000000000e+02,2.128882299999999930e+02
1.310000000000000000e+02,2.148008399999999938e+02
1.320000000000000000e+02,2.167060400000000016e+02
1.330000000000000000e+02,2.186034500000000094e+02
1.340000000000000000e+02,2.204928600000000074e+02
1.350000000000000000e+02,2.223739799999999889e+02
1.360000000000000000e+02,2.242464400000000069e+02
1.370000000000000000e+02,2.261100600000000043e+02
1.380000000000000000e+02,2.279645700000000090e+02
1.390000000000000000e+02,2.298096299999999985e+02
1.400000000000000000e+02,2.316450700000000040e+02
1.410000000000000000e+02,2.334705500000000029e+02
1.420000000000000000e+02,2.352858699999999885e+02
1.430000000000000000e+02,2.370907300000000077e+02
1.440000000000000000e+02,2.388848000000000127e+02
1.450000000000000000e+02,2.406678300000000092e+02
1.460000000000000000e+02,2.424395299999999907e+02
1.470000000000000000e+02,2.441995400000000132e+02
1.480000000000000000e+02,2.459475899999999911e+02
1.490000000000000000e+02,2.476831999999999994e+02
1.500000000000000000e+02,2.494061000000000092e+02
1.510000000000000000e+02,2.511159199999999885e+02
1.520000000000000000e+02,2.528122099999999932e+02
1.530000000000000000e+02,2.544945500000000038e+02
1.540000000000000000e+02,2.561625099999999975e+02
1.550000000000000000e+02,2.578156399999999735e+02
1.560000000000000000e+02,2.594534300000000258e+02
1.570000000000000000e+02,2.610754400000000146e+02
1.580000000000000000e+02,2.626810899999999833e+02
1.590000000000000000e+02,2.642701099999999883e+02
1.600000000000000000e+02,2.658418599999999969e+02
1.610000000000000000e+02,2.673964500000000157e+02
1.620000000000000000e+02,2.689338399999999751e+02
1.630000000000000000e+02,2.704536100000000260e+02
1.640000000000000000e+02,2.719551999999999907e+02
1.650000000000000000e+02,2.734376199999999812e+02
1.660000000000000000e+02,2.748997800000000211e+02
1.670000000000000000e+02,2.763406400000000076e+02
1.680000000000000000e+02,2.777591600000000085e+02
1.690000000000000000e+02,2.791544499999999971e+02
1.700000000000000000e+02,2.805257300000000100e+02
1.710000000000000000e+02,2.818722500000000082e+02
1.720000000000000000e+02,2.831933599999999842e+02
1.730000000000000000e+02,2.844884299999999939e+02
1.740000000000000000e+02,2.857570200000000114e+02
1.750000000000000000e+02,2.869984999999999786e+02
1.760000000000000000e+02,2.882125199999999836e+02
1.770000000000000000e+02,2.893986499999999751e+02
1.780000000000000000e+02,2.905565500000000156e+02
1.790000000000000000e+02,2.916859699999999975e+02
1.800000000000000000e+02,2.927866200000000276e+02
1.810000000000000000e+02,2.938584900000000175e+02
1.820000000000000000e+02,2.949014300000000048e+02
1.830000000000000000e+02,2.959154700000000275e+02
1.840000000000000000e+02,2.969008200000000102e+02
1.850000000000000000e+02,2.978575700000000097e+02
1.860000000000000000e+02,2.987860699999999952e+02
1.870000000000000000e+02,2.996867100000000050e+02
1.880000000000000000e+02,3.005599399999999832e+02
1.890000000000000000e+02,3.014062799999999811e+02
1.900000000000000000e+02,3.022447500000000105e+02
1.910000000000000000e+02,3.030518200000000206e+02
1.920000000000000000e+02,3.038346599999999853e+02
1.930000000000000000e+02,3.045947899999999890e+02
1.940000000000000000e+02,3.053320600000000127e+02
1.950000000000000000e+02,3.060464799999999741e+02
1.960000000000000000e+02,3.067383399999999938e+02
1.970000000000000000e+02,3.074085099999999784e+02
1.980000000000000000e+02,3.080581099999999992e+02
1.990000000000000000e+02,3.086884499999999889e+02
2.000000000000000000e+02,3.093008399999999938e+02
2.010000000000000000e+02,3.098966100000000097e+02
2.020000000000000000e+02,3.104771099999999819e+02
2.030000000000000000e+02,3.110434900000000198e+02
2.040000000000000000e+02,3.115970500000000243e+02
2.050000000000000000e+02,3.121389500000000226e+02
2.060000000000000000e+02,3.126703200000000038e+02
2.070000000000000000e+02,3.131923199999999952e+02
2.080000000000000000e+02,3.137058700000000044e+02
2.090000000000000000e+02,3.142120699999999829e+02
2.100000000000000000e+02,3.147119099999999889e+02
2.110000000000000000e+02,3.152062099999999987e+02
2.120000000000000000e+02,3.156958900000000199e+02
2.130000000000000000e+02,3.161817599999999970e+02
2.140000000000000000e+02,3.166646099999999819e+02
2.150000000000000000e+02,3.171451400000000262e+02
2.160000000000000000e+02,3.176240500000000111e+02
2.170000000000000000e+02,3.181020500000000197e+02
2.180000000000000000e+02,3.186574100000000271e+02
2.190000000000000000e+02,3.191768200000000206e+02
2.200000000000000000e+02,3.196841400000000135e+02
2.210000000000000000e+02,3.201852099999999837e+02
2.220000000000000000e+02,3.206815199999999777e+02
2.230000000000000000e+02,3.211752599999999802e+02
2.240000000000000000e+02,3.216680299999999875e+02
2.250000000000000000e+02,3.221614999999999895e+02
2.260000000000000000e+02,3.226569799999999759e+02
2.270000000000000000e+02,3.231553599999999733e+02
2.280000000000000000e+02,3.236573200000000270e+02
2.290000000000000000e+02,3.241634799999999927e+02
2.300000000000000000e+02,3.246742199999999912e+02
2.310000000000000000e+02,3.251900299999999788e+02
2.320000000000000000e+02,3.257112999999999943e+02
2.330000000000000000e+02,3.262382200000000125e+02
2.340000000000000000e+02,3.267712099999999964e+02
2.350000000000000000e+02,3.273106399999999780e+02
2.360000000000000000e+02,3.278566900000000146e+02
2.370000000000000000e+02,3.284096999999999866e+02
2.380000000000000000e+02,3.289698200000000270e+02
2.390000000000000000e+02,3.295375099999999975e+02
2.400000000000000000e+02,3.301128499999999804e+02
2.410000000000000000e+02,3.306963200000000143e+02
2.420000000000000000e+02,3.312881499999999733e+02
2.430000000000000000e+02,3.318887599999999907e+02
2.440000000000000000e+02,3.324983199999999783e+02
2.450000000000000000e+02,3.331170999999999935e+02
2.460000000000000000e+02,3.337455100000000243e+02
2.470000000000000000e+02,3.343840299999999957e+02
2.480000000000000000e+02,3.352773399999999810e+02
2.490000000000000000e+02,3.360139500000000226e+02
2.500000000000000000e+02,3.367058999999999855e+02
2.510000000000000000e+02,3.373966699999999719e+02
2.520000000000000000e+02,3.380910299999999893e+02
2.530000000000000000e+02,3.387954700000000230e+02
2.540000000000000000e+02,3.395128799999999956e+02
2.550000000000000000e+02,3.402444499999999721e+02
2.560000000000000000e+02,3.409909099999999853e+02
2.570000000000000000e+02,3.417530800000000113e+02
2.580000000000000000e+02,3.425314599999999814e+02
2.590000000000000000e+02,3.433268100000000231e+02
2.600000000000000000e+02,3.441393699999999853e+02
2.610000000000000000e+02,3.449697600000000079e+02
2.620000000000000000e+02,3.458189699999999789e+02
2.630000000000000000e+02,3.466876800000000003e+02
2.640000000000000000e+02,3.475763200000000097e+02
2.650000000000000000e+02,3.484856300000000147e+02
2.660000000000000000e+02,3.494169600000000173e+02
2.670000000000000000e+02,3.503719800000000077e+02
2.680000000000000000e+02,3.513503699999999981e+02
2.690000000000000000e+02,3.523542800000000170e+02
2.700000000000000000e+02,3.533845800000000281e+02
2.710000000000000000e+02,3.544426900000000273e+02
2.720000000000000000e+02,3.555303599999999733e+02
2.730000000000000000e+02,3.566484699999999748e+02
2.740000000000000000e+02,3.577985800000000154e+02
2.750000000000000000e+02,3.589824499999999716e+02
2.760000000000000000e+02,3.602025100000000180e+02
2.770000000000000000e+02,3.614601400000000240e+02
2.780000000000000000e+02,3.627575100000000248e+02
2.790000000000000000e+02,3.640968599999999924e+02
2.800000000000000000e+02,3.654812000000000012e+02
2.810000000000000000e+02,3.669124800000000164e+02
2.820000000000000000e+02,3.683934899999999857e+02
2.830000000000000000e+02,3.699278899999999908e+02
2.840000000000000000e+02,3.721311999999999784e+02
2.850000000000000000e+02,3.739144000000000005e+02
2.860000000000000000e+02,3.756263099999999895e+02
2.870000000000000000e+02,3.773984699999999748e+02
2.880000000000000000e+02,3.792471300000000269e+02
2.890000000000000000e+02,3.811749899999999798e+02
2.900000000000000000e+02,3.831868299999999863e+02
2.910000000000000000e+02,3.852881199999999922e+02
2.920000000000000000e+02,3.874832799999999793e+02
2.930000000000000000e+02,3.897785600000000272e+02
2.940000000000000000e+02,3.921800200000000132e+02
2.950000000000000000e+02,3.946955899999999815e+02
2.960000000000000000e+02,3.973367299999999886e+02
2.970000000000000000e+02,4.001080900000000042e+02
2.980000000000000000e+02,4.030220600000000104e+02
2.990000000000000000e+02,4.060885000000000105e+02
3.000000000000000000e+02,4.093192099999999982e+02
3.010000000000000000e+02,4.127282099999999900e+02
3.020000000000000000e+02,4.163245499999999879e+02
3.030000000000000000e+02,4.201214899999999943e+02
3.040000000000000000e+02,4.241258199999999761e+02
3.050000000000000000e+02,4.283417099999999778e+02
3.060000000000000000e+02,4.327660500000000070e+02
3.070000000000000000e+02,4.373841899999999896e+02
3.080000000000000000e+02,4.421704700000000230e+02
3.090000000000000000e+02,4.470821799999999939e+02
3.100000000000000000e+02,4.520683000000000220e+02
3.110000000000000000e+02,4.570668900000000008e+02
3.120000000000000000e+02,4.620212700000000154e+02
3.130000000000000000e+02,4.668796100000000138e+02
3.140000000000000000e+02,4.716068700000000149e+02
3.150000000000000000e+02,4.761811200000000213e+02
3.160000000000000000e+02,4.805954899999999839e+02
3.170000000000000000e+02,4.848507399999999734e+02
3.180000000000000000e+02,4.889533999999999878e+02
3.190000000000000000e+02,4.929132399999999734e+02
3.200000000000000000e+02,4.967415799999999990e+02
3.210000000000000000e+02,5.004489699999999743e+02
3.220000000000000000e+02,5.040473600000000260e+02
3.230000000000000000e+02,5.075470300000000066e+02
3.240000000000000000e+02,5.109573700000000258e+02
3.250000000000000000e+02,5.142849700000000439e+02
3.260000000000000000e+02,5.175360699999999952e+02
3.270000000000000000e+02,5.207157600000000457e+02
3.280000000000000000e+02,5.238283699999999499e+02
3.290000000000000000e+02,5.268770799999999781e+02
3.300000000000000000e+02,5.298649900000000343e+02
3.310000000000000000e+02,5.327959600000000364e+02
3.320000000000000000e+02,5.356708399999999983e+02
3.330000000000000000e+02,5.384921299999999746e+02
3.340000000000000000e+02,5.412622099999999818e+02
3.350000000000000000e+02,5.439823599999999715e+02
3.360000000000000000e+02,5.466539900000000216e+02
3.370000000000000000e+02,5.492784400000000460e+02
3.380000000000000000e+02,5.518573000000000093e+02
3.390000000000000000e+02,5.543914800000000014e+02
3.400000000000000000e+02,5.568820200000000114e+02
3.410000000000000000e+02,5.593298300000000154e+02
3.420000000000000000e+02,5.617357200000000148e+02
3.430000000000000000e+02,5.641007700000000114e+02
3.440000000000000000e+02,5.664256000000000313e+02
3.450000000000000000e+02,5.687107499999999618e+02
3.460000000000000000e+02,5.709574000000000069e+02
3.470000000000000000e+02,5.731659499999999525e+02
3.480000000000000000e+02,5.753370999999999640e+02
3.490000000000000000e+02,5.774714400000000296e+02
3.500000000000000000e+02,5.795697599999999738e+02
3.510000000000000000e+02,5.816325699999999870e+02
3.520000000000000000e+02,5.836603999999999814e+02
3.530000000000000000e+02,5.856539299999999457e+02
3.540000000000000000e+02,5.876133999999999560e+02
3.550000000000000000e+02,5.895396100000000388e+02
3.560000000000000000e+02,5.914333500000000186e+02
3.570000000000000000e+02,5.932948000000000093e+02
3.580000000000000000e+02,5.951243899999999485e+02
3.590000000000000000e+02,5.969230300000000398e+02
3.600000000000000000e+02,5.986908600000000433e+02
3.610000000000000000e+02,6.004284099999999853e+02
3.620000000000000000e+02,6.021360499999999547e+02
3.630000000000000000e+02,6.038146400000000540e+02
3.640000000000000000e+02,6.054643600000000561e+02
3.650000000000000000e+02,6.070855099999999993e+02
3.660000000000000000e+02,6.086788299999999481e+02
3.670000000000000000e+02,6.102448100000000295e+02
3.680000000000000000e+02,6.117837500000000546e+02
3.690000000000000000e+02,6.132960799999999608e+02
3.700000000000000000e+02,6.147823499999999513e+02
3.710000000000000000e+02,6.162427999999999884e+02
3.720000000000000000e+02,6.176779800000000478e+02
3.730000000000000000e+02,6.190881299999999783e+02
3.740000000000000000e+02,6.204737499999999955e+02
3.750000000000000000e+02,6.218353299999999990e+02
3.760000000000000000e+02,6.231732200000000148e+02
3.770000000000000000e+02,6.244877300000000560e+02
3.780000000000000000e+02,6.257794199999999591e+02
3.790000000000000000e+02,6.270483400000000529e+02
3.800000000000000000e+02,6.282951699999999846e+02
3.810000000000000000e+02,6.295200800000000072e+02
3.820000000000000000e+02,6.307234499999999571e+02
3.830000000000000000e+02,6.319055799999999863e+02
3.840000000000000000e+02,6.330669599999999946e+02
3.850000000000000000e+02,6.342080700000000206e+02
3.860000000000000000e+02,6.353290399999999636e+02
3.870000000000000000e+02,6.364302400000000262e+02
3.880000000000000000e+02,6.375120200000000068e+02
3.890000000000000000e+02,6.385747099999999818e+02
3.900000000000000000e+02,6.396185900000000402e+02
3.910000000000000000e+02,6.406439800000000560e+02
3.920000000000000000e+02,6.416511799999999539e+02
3.930000000000000000e+02,6.426404999999999745e+02
3.940000000000000000e+02,6.436123700000000554e+02
3.950000000000000000e+02,6.445668899999999439e+02
3.960000000000000000e+02,6.455043899999999439e+02
3.970000000000000000e+02,6.464253499999999804e+02
3.980000000000000000e+02,6.473298300000000154e+02
3.990000000000000000e+02,6.482181399999999485e+02
4.000000000000000000e+02,6.490905800000000454e+02
4.010000000000000000e+02,6.499475099999999657e+02
4.020000000000000000e+02,6.507890599999999495e+02
4.030000000000000000e+02,6.516156600000000481e+02
4.040000000000000000e+02,6.524274900000000343e+02
4.050000000000000000e+02,6.532247899999999845e+02
4.060000000000000000e+02,6.540076900000000251e+02
4.070000000000000000e+02,6.547766100000000051e+02
4.080000000000000000e+02,6.555317999999999756e+02
4.090000000000000000e+02,6.562733799999999746e+02
4.100000000000000000e+02,6.570015899999999647e+02
4.110000000000000000e+02,6.577167399999999589e+02
4.120000000000000000e+02,6.584190099999999575e+02
4.130000000000000000e+02,6.591086400000000367e+02
4.140000000000000000e+02,6.597858899999999949e+02
4.150000000000000000e+02,6.604509299999999712e+02
4.160000000000000000e+02,6.611040000000000418e+02
4.170000000000000000e+02,6.617451800000000048e+02
4.180000000000000000e+02,6.623748799999999619e+02
4.190000000000000000e+02,6.629931599999999889e+02
4.200000000000000000e+02,6.636002200000000357e+02
4.210000000000000000e+02,6.641964100000000144e+02
4.220000000000000000e+02,6.647817400000000134e+02
4.230000000000000000e+02,6.653565099999999575e+02
4.240000000000000000e+02,6.659207800000000361e+02
4.250000000000000000e+02,6.664748499999999467e+02
4.260000000000000000e+02,6.670189199999999801e+02
4.270000000000000000e+02,6.675530999999999722e+02
4.280000000000000000e+02,6.680775099999999611e+02
4.290000000000000000e+02,6.685924700000000485e+02
4.300000000000000000e+02,6.690980799999999817e+02
4.310000000000000000e+02,6.695944799999999759e+02
4.320000000000000000e+02,6.700817899999999554e+02
4.330000000000000000e+02,6.705602999999999838e+02
4.340000000000000000e+02,6.710300899999999729e+02
4.350000000000000000e+02,6.714912699999999859e+02
4.360000000000000000e+02,6.719441500000000360e+02
4.370000000000000000e+02,6.723887300000000096e+02
4.380000000000000000e+02,6.728251999999999953e+02
4.390000000000000000e+02,6.732537200000000439e+02
4.400000000000000000e+02,6.736744400000000041e+02
4.410000000000000000e+02,6.740874599999999646e+02
4.420000000000000000e+02,6.744929799999999886e+02
4.430000000000000000e+02,6.748910499999999502e+02
4.440000000000000000e+02,6.752817999999999756e+02
4.450000000000000000e+02,6.756654700000000275e+02
4.460000000000000000e+02,6.760421099999999797e+02
4.470000000000000000e+02,6.764117999999999711e+02
4.480000000000000000e+02,6.767747200000000021e+02
4.490000000000000000e+02,6.771310999999999467e+02
4.500000000000000000e+02,6.774809000000000196e+02
4.510000000000000000e+02,6.778242800000000443e+02
4.520000000000000000e+02,6.781613800000000083e+02
4.530000000000000000e+02,6.784923099999999749e+02
4.540000000000000000e+02,6.788171399999999949e+02
4.550000000000000000e+02,6.791360499999999547e+02
4.560000000000000000e+02,6.794491000000000440e+02
4.570000000000000000e+02,6.797564099999999598e+02
4.580000000000000000e+02,6.800580400000000054e+02
4.590000000000000000e+02,6.803541300000000547e+02
4.600000000000000000e+02,6.806448400000000447e+02
4.610000000000000000e+02,6.809301799999999503e+02
4.620000000000000000e+02,6.812102700000000368e+02
4.630000000000000000e+02,6.814851700000000392e+02
4.640000000000000000e+02,6.817550700000000461e+02
4.650000000000000000e+02,6.820200200000000450e+02
4.660000000000000000e+02,6.822800300000000107e+02
4.670000000000000000e+02,6.825353400000000192e+02
4.680000000000000000e+02,6.827858899999999949e+02
4.690000000000000000e+02,6.830318600000000515e+02
4.700000000000000000e+02,6.832732499999999618e+02
4.710000000000000000e+02,6.835102500000000418e+02
4.720000000000000000e+02,6.837429200000000264e+02
4.730000000000000000e+02,6.839711899999999787e+02
4.740000000000000000e+02,6.841953700000000254e+02
4.750000000000000000e+02,6.844153400000000147e+02
4.760000000000000000e+02,6.846312900000000354e+02
4.770000000000000000e+02,6.848432000000000244e+02
4.780000000000000000e+02,6.850512700000000450e+02
4.790000000000000000e+02,6.852554300000000467e+02
4.800000000000000000e+02,6.854558700000000044e+02
4.810000000000000000e+02,6.856526499999999942e+02
4.820000000000000000e+02,6.858456999999999653e+02
4.830000000000000000e+02,6.860352799999999434e+02
4.840000000000000000e+02,6.862213100000000168e+02
4.850000000000000000e+02,6.864039299999999457e+02
4.860000000000000000e+02,6.865831299999999828e+02
4.870000000000000000e+02,6.867590900000000147e+02
4.880000000000000000e+02,6.869317600000000539e+02
4.890000000000000000e+02,6.871011999999999489e+02
4.900000000000000000e+02,6.872675799999999526e+02
4.910000000000000000e+02,6.874308499999999640e+02
4.920000000000000000e+02,6.875911300000000210e+02
4.930000000000000000e+02,6.877483499999999594e+02
4.940000000000000000e+02,6.879027700000000323e+02
4.950000000000000000e+02,6.880543199999999615e+02
4.960000000000000000e+02,6.882029999999999745e+02
4.970000000000000000e+02,6.883490000000000464e+02
4.980000000000000000e+02,6.884922500000000127e+02
4.990000000000000000e+02,6.886328700000000254e+02
5.000000000000000000e+02,6.887708699999999453e+02
5.010000000000000000e+02,6.889063700000000381e+02
5.020000000000000000e+02,6.890393100000000004e+02
5.030000000000000000e+02,6.891698000000000093e+02
5.040000000000000000e+02,6.892978500000000395e+02
5.050000000000000000e+02,6.894235800000000154e+02
5.060000000000000000e+02,6.895469399999999496e+02
5.070000000000000000e+02,6.896680300000000443e+02
5.080000000000000000e+02,6.897868700000000217e+02
5.090000000000000000e+02,6.899035599999999704e+02
5.100000000000000000e+02,6.900180100000000039e+02
5.110000000000000000e+02,6.901303699999999708e+02
5.120000000000000000e+02,6.902406600000000481e+02
5.130000000000000000e+02,6.903488800000000083e+02
5.140000000000000000e+02,6.904551400000000285e+02
5.150000000000000000e+02,6.905593900000000076e+02
5.160000000000000000e+02,6.906617400000000089e+02
5.170000000000000000e+02,6.907621500000000196e+02
5.180000000000000000e+02,6.908607200000000148e+02
5.190000000000000000e+02,6.909574599999999691e+02
5.200000000000000000e+02,6.910523699999999963e+02
5.210000000000000000e+02,6.911455700000000206e+02
5.220000000000000000e+02,6.912369999999999663e+02
5.230000000000000000e+02,6.913267799999999852e+02
5.240000000000000000e+02,6.914148599999999760e+02
5.250000000000000000e+02,6.915013400000000274e+02
5.260000000000000000e+02,6.915861800000000130e+02
5.270000000000000000e+02,6.916694899999999961e+02
5.280000000000000000e+02,6.917512199999999893e+02
5.290000000000000000e+02,6.918314199999999801e+02
5.300000000000000000e+02,6.919101600000000190e+02
5.310000000000000000e+02,6.919873700000000554e+02
5.320000000000000000e+02,6.920632299999999759e+02
5.330000000000000000e+02,6.921376299999999446e+02
5.340000000000000000e+02,6.922106899999999996e+02
5.350000000000000000e+02,6.922824100000000271e+02
5.360000000000000000e+02,6.923527199999999766e+02
5.370000000000000000e+02,6.924217499999999745e+02
5.380000000000000000e+02,6.924895000000000209e+02
5.390000000000000000e+02,6.925560299999999643e+02
5.400000000000000000e+02,6.926212799999999561e+02
5.410000000000000000e+02,6.926853599999999460e+02
5.420000000000000000e+02,6.927482300000000350e+02
5.430000000000000000e+02,6.928099399999999832e+02
5.440000000000000000e+02,6.928704800000000432e+02
5.450000000000000000e+02,6.929298700000000508e+02
5.460000000000000000e+02,6.929882199999999557e+02
5.470000000000000000e+02,6.930454700000000230e+02
5.480000000000000000e+02,6.931016200000000254e+02
5.490000000000000000e+02,6.931567999999999756e+02
5.500000000000000000e+02,6.932108799999999746e+02
5.510000000000000000e+02,6.932639799999999468e+02
5.520000000000000000e+02,6.933161000000000058e+02
5.530000000000000000e+02,6.933672500000000127e+02
5.540000000000000000e+02,6.934174199999999928e+02
5.550000000000000000e+02,6.934666700000000219e+02
5.560000000000000000e+02,6.935150099999999611e+02
5.570000000000000000e+02,6.935624400000000378e+02
5.580000000000000000e+02,6.936090100000000120e+02
5.590000000000000000e+02,6.936547199999999975e+02
5.600000000000000000e+02,6.936995799999999690e+02
5.610000000000000000e+02,6.937435900000000402e+02
5.620000000000000000e+02,6.937867999999999711e+02
5.630000000000000000e+02,6.938292199999999639e+02
5.640000000000000000e+02,6.938707900000000564e+02
5.650000000000000000e+02,6.939116199999999708e+02
5.660000000000000000e+02,6.939517200000000230e+02
5.670000000000000000e+02,6.939910300000000234e+02
5.680000000000000000e+02,6.940295999999999594e+02
5.690000000000000000e+02,6.940674999999999955e+02
5.700000000000000000e+02,6.941046800000000303e+02
5.710000000000000000e+02,6.941411100000000260e+02
5.720000000000000000e+02,6.941769399999999450e+02
5.730000000000000000e+02,6.942120400000000018e+02
5.740000000000000000e+02,6.942465200000000323e+02
5.750000000000000000e+02,6.942803999999999860e+02
5.760000000000000000e+02,6.943135999999999513e+02
5.770000000000000000e+02,6.943461899999999787e+02
5.780000000000000000e+02,6.943781699999999546e+02
5.790000000000000000e+02,6.944095499999999674e+02
5.800000000000000000e+02,6.944403700000000299e+02
5.810000000000000000e+02,6.944705800000000409e+02
5.820000000000000000e+02,6.945002399999999625e+02
5.830000000000000000e+02,6.945294199999999591e+02
5.840000000000000000e+02,6.945579800000000432e+02
5.850000000000000000e+02,6.945860599999999749e+02
5.860000000000000000e+02,6.946135900000000447e+02
5.870000000000000000e+02,6.946405600000000504e+02
5.880000000000000000e+02,6.946671099999999797e+02
5.890000000000000000e+02,6.946931200000000217e+02
5.900000000000000000e+02,6.947186299999999619e+02
5.910000000000000000e+02,6.947437099999999646e+02
5.920000000000000000e+02,6.947683100000000422e+02
5.930000000000000000e+02,6.947924199999999928e+02
5.940000000000000000e+02,6.948161000000000058e+02
5.950000000000000000e+02,6.948392900000000054e+02
5.960000000000000000e+02,6.948621200000000044e+02
5.970000000000000000e+02,6.948844599999999900e+02
5.980000000000000000e+02,6.949064300000000003e+02
5.990000000000000000e+02,6.949279800000000478e+02