# Time [s], Temperature [C]
1.000000000000000000e+00,2.500000000000000000e+01
2.000000000000000000e+00,2.500000000000000000e+01
3.000000000000000000e+00,2.500000000000000000e+01
4.000000000000000000e+00,2.500000000000000000e+01
5.000000000000000000e+00,2.500000199999999850e+01
6.000000000000000000e+00,2.500000800000000112e+01
7.000000000000000000e+00,2.500002900000000139e+01
8.000000000000000000e+00,2.500009700000000024e+01
9.000000000000000000e+00,2.500028000000000006e+01
1.000000000000000000e+01,2.500070799999999949e+01
1.100000000000000000e+01,2.500159599999999926e+01
1.200000000000000000e+01,2.500326499999999896e+01
1.300000000000000000e+01,2.500614399999999904e+01
1.400000000000000000e+01,2.501076499999999925e+01
1.500000000000000000e+01,2.501775599999999855e+01
1.600000000000000000e+01,2.502779800000000066e+01
1.700000000000000000e+01,2.504162000000000177e+01
1.800000000000000000e+01,2.505996299999999977e+01
1.900000000000000000e+01,2.508355900000000105e+01
2.000000000000000000e+01,2.511311699999999902e+01
2.100000000000000000e+01,2.514930000000000021e+01
2.200000000000000000e+01,2.519272199999999984e+01
2.300000000000000000e+01,2.524394200000000055e+01
2.400000000000000000e+01,2.530345300000000108e+01
2.500000000000000000e+01,2.537168300000000087e+01
2.600000000000000000e+01,2.544900700000000171e+01
2.700000000000000000e+01,2.553572300000000084e+01
2.800000000000000000e+01,2.563208200000000048e+01
2.900000000000000000e+01,2.573828100000000063e+01
3.000000000000000000e+01,2.585446400000000011e+01
3.100000000000000000e+01,2.598072600000000065e+01
3.200000000000000000e+01,2.611712100000000092e+01
3.300000000000000000e+01,2.626367000000000118e+01
3.400000000000000000e+01,2.642034900000000164e+01
3.500000000000000000e+01,2.658710900000000166e+01
3.600000000000000000e+01,2.676388499999999837e+01
3.700000000000000000e+01,2.695056900000000155e+01
3.800000000000000000e+01,2.714705100000000115e+01
3.900000000000000000e+01,2.735317999999999827e+01
4.000000000000000000e+01,2.756881900000000130e+01
4.100000000000000000e+01,2.779380000000000095e+01
4.200000000000000000e+01,2.802794799999999853e+01
4.300000000000000000e+01,2.827108199999999982e+01
4.400000000000000000e+01,2.852299899999999866e+01
4.500000000000000000e+01,2.878350800000000120e+01
4.600000000000000000e+01,2.905241399999999885e+01
4.700000000000000000e+01,2.932950200000000152e+01
4.800000000000000000e+01,2.961457400000000106e+01
4.900000000000000000e+01,2.990742499999999993e+01
5.000000000000000000e+01,3.020782700000000176e+01
5.100000000000000000e+01,3.051559400000000011e+01
5.200000000000000000e+01,3.083052100000000095e+01
5.300000000000000000e+01,3.115239300000000000e+01
5.400000000000000000e+01,3.148100900000000024e+01
5.500000000000000000e+01,3.181617400000000018e+01
5.600000000000000000e+01,3.215767300000000262e+01
5.700000000000000000e+01,3.250533699999999726e+01
5.800000000000000000e+01,3.285896300000000281e+01
5.900000000000000000e+01,3.321835699999999747e+01
6.000000000000000000e+01,3.358333600000000274e+01
6.100000000000000000e+01,3.395372400000000113e+01
6.200000000000000000e+01,3.432933400000000290e+01
6.300000000000000000e+01,3.470999900000000338e+01
6.400000000000000000e+01,3.509554700000000338e+01
6.500000000000000000e+01,3.548580599999999663e+01
6.600000000000000000e+01,3.588062299999999993e+01
6.700000000000000000e+01,3.627984200000000214e+01
6.800000000000000000e+01,3.668330799999999670e+01
6.900000000000000000e+01,3.709087000000000245e+01
7.000000000000000000e+01,3.750237700000000274e+01
7.100000000000000000e+01,3.791768299999999670e+01
7.200000000000000000e+01,3.833664699999999925e+01
7.300000000000000000e+01,3.875914000000000215e+01
7.400000000000000000e+01,3.918502800000000263e+01
7.500000000000000000e+01,3.961418900000000320e+01
7.600000000000000000e+01,4.004649700000000223e+01
7.700000000000000000e+01,4.048183399999999921e+01
7.800000000000000000e+01,4.092008599999999774e+01
7.900000000000000000e+01,4.136113699999999938e+01
8.000000000000000000e+01,4.180487099999999856e+01
8.100000000000000000e+01,4.225119399999999814e+01
8.200000000000000000e+01,4.269996299999999678e+01
8.300000000000000000e+01,4.315109600000000256e+01
8.400000000000000000e+01,4.360450699999999813e+01
8.500000000000000000e+01,4.406009300000000195e+01
8.600000000000000000e+01,4.451777299999999826e+01
8.700000000000000000e+01,4.497744800000000254e+01
8.800000000000000000e+01,4.543903699999999901e+01
8.900000000000000000e+01,4.590243099999999998e+01
9.000000000000000000e+01,4.636755800000000249e+01
9.100000000000000000e+01,4.683433899999999994e+01
9.200000000000000000e+01,4.730271499999999918e+01
9.300000000000000000e+01,4.777259800000000212e+01
9.400000000000000000e+01,4.824392699999999934e+01
9.500000000000000000e+01,4.871660599999999874e+01
9.600000000000000000e+01,4.919056700000000149e+01
9.700000000000000000e+01,4.966575199999999768e+01
9.800000000000000000e+01,5.014211300000000193e+01
9.900000000000000000e+01,5.061959099999999978e+01
1.000000000000000000e+02,5.109809899999999772e+01
1.010000000000000000e+02,5.157757600000000053e+01
1.020000000000000000e+02,5.205797599999999647e+01
1.030000000000000000e+02,5.253925300000000220e+01
1.040000000000000000e+02,5.302137400000000156e+01
1.050000000000000000e+02,5.350423800000000085e+01
1.060000000000000000e+02,5.398780800000000113e+01
1.070000000000000000e+02,5.447205699999999950e+01
1.080000000000000000e+02,5.495692400000000077e+01
1.090000000000000000e+02,5.544237499999999841e+01
1.100000000000000000e+02,5.592833699999999908e+01
1.110000000000000000e+02,5.641478000000000037e+01
1.120000000000000000e+02,5.690167999999999893e+01
1.130000000000000000e+02,5.738898499999999814e+01
1.140000000000000000e+02,5.787666699999999764e+01
1.150000000000000000e+02,5.836466999999999672e+01
1.160000000000000000e+02,5.885294700000000034e+01
1.170000000000000000e+02,5.934148799999999824e+01
1.180000000000000000e+02,5.983027299999999826e+01
1.190000000000000000e+02,6.031922500000000298e+01
1.200000000000000000e+02,6.080832699999999846e+01
1.210000000000000000e+02,6.129756499999999875e+01
1.220000000000000000e+02,6.178690000000000282e+01
1.230000000000000000e+02,6.227631399999999928e+01
1.240000000000000000e+02,6.276575499999999863e+01
1.250000000000000000e+02,6.325519200000000097e+01
1.260000000000000000e+02,6.374462100000000220e+01
1.270000000000000000e+02,6.423402400000000512e+01
1.280000000000000000e+02,6.472334299999999985e+01
1.290000000000000000e+02,6.521256300000000294e+01
1.300000000000000000e+02,6.570167499999999450e+01
1.310000000000000000e+02,6.619065899999999658e+01
1.320000000000000000e+02,6.667948900000000378e+01
1.330000000000000000e+02,6.716812899999999331e+01
1.340000000000000000e+02,6.765656300000000556e+01
1.350000000000000000e+02,6.814477499999999566e+01
1.360000000000000000e+02,6.863277399999999773e+01
1.370000000000000000e+02,6.912049100000000124e+01
1.380000000000000000e+02,6.960792499999999450e+01
1.390000000000000000e+02,7.009507000000000687e+01
1.400000000000000000e+02,7.058190899999999601e+01
1.410000000000000000e+02,7.106843600000000549e+01
1.420000000000000000e+02,7.155460399999999765e+01
1.430000000000000000e+02,7.204039799999999616e+01
1.440000000000000000e+02,7.252582599999999502e+01
1.450000000000000000e+02,7.301087200000000621e+01
1.460000000000000000e+02,7.349553699999999878e+01
1.470000000000000000e+02,7.397975900000000138e+01
1.480000000000000000e+02,7.446355400000000202e+01
1.490000000000000000e+02,7.494690699999999595e+01
1.500000000000000000e+02,7.542983999999999867e+01
1.510000000000000000e+02,7.591228499999999713e+01
1.520000000000000000e+02,7.639424900000000207e+01
1.530000000000000000e+02,7.687572500000000275e+01
1.540000000000000000e+02,7.735670500000000516e+01
1.550000000000000000e+02,7.783720399999999984e+01
1.560000000000000000e+02,7.831716900000000692e+01
1.570000000000000000e+02,7.879659999999999798e+01
1.580000000000000000e+02,7.927549000000000490e+01
1.590000000000000000e+02,7.975384499999999832e+01
1.600000000000000000e+02,8.023166700000000162e+01
1.610000000000000000e+02,8.070889999999999986e+01
1.620000000000000000e+02,8.118556200000000445e+01
1.630000000000000000e+02,8.166164399999999546e+01
1.640000000000000000e+02,8.213714600000000132e+01
1.650000000000000000e+02,8.261206099999999708e+01
1.660000000000000000e+02,8.308638799999999947e+01
1.670000000000000000e+02,8.356008900000000494e+01
1.680000000000000000e+02,8.403317300000000500e+01
1.690000000000000000e+02,8.450564599999999871e+01
1.700000000000000000e+02,8.497750100000000373e+01
1.710000000000000000e+02,8.544872999999999763e+01
1.720000000000000000e+02,8.591930399999999679e+01
1.730000000000000000e+02,8.638923599999999681e+01
1.740000000000000000e+02,8.685852099999999609e+01
1.750000000000000000e+02,8.732715600000000222e+01
1.760000000000000000e+02,8.779514299999999594e+01
1.770000000000000000e+02,8.826247399999999743e+01
1.780000000000000000e+02,8.872912599999999372e+01
1.790000000000000000e+02,8.919509899999999902e+01
1.800000000000000000e+02,8.966039299999999912e+01
1.810000000000000000e+02,9.012501500000000476e+01
1.820000000000000000e+02,9.058895900000000267e+01
1.830000000000000000e+02,9.105222299999999791e+01
1.840000000000000000e+02,9.151477800000000684e+01
1.850000000000000000e+02,9.197663099999999758e+01
1.860000000000000000e+02,9.243779000000000678e+01
1.870000000000000000e+02,9.289824699999999780e+01
1.880000000000000000e+02,9.335800899999999558e+01
1.890000000000000000e+02,9.381707799999999509e+01
1.900000000000000000e+02,9.427542099999999436e+01
1.910000000000000000e+02,9.473304000000000258e+01
1.920000000000000000e+02,9.518994100000000458e+01
1.930000000000000000e+02,9.564612599999999532e+01
1.940000000000000000e+02,9.610158500000000004e+01
1.950000000000000000e+02,9.655633500000000424e+01
1.960000000000000000e+02,9.701036100000000317e+01
1.970000000000000000e+02,9.746367600000000664e+01
1.980000000000000000e+02,9.791622900000000129e+01
1.990000000000000000e+02,9.836805699999999320e+01
2.000000000000000000e+02,9.881914500000000601e+01
2.010000000000000000e+02,9.926949299999999710e+01
2.020000000000000000e+02,9.971911599999999964e+01
2.030000000000000000e+02,1.001680099999999953e+02
2.040000000000000000e+02,1.006161500000000046e+02
2.050000000000000000e+02,1.010635699999999986e+02
2.060000000000000000e+02,1.015102200000000039e+02
2.070000000000000000e+02,1.019561199999999985e+02
2.080000000000000000e+02,1.024012699999999967e+02
2.090000000000000000e+02,1.028456800000000015e+02
2.100000000000000000e+02,1.032893399999999957e+02
2.110000000000000000e+02,1.037322499999999934e+02
2.120000000000000000e+02,1.041744300000000010e+02
2.130000000000000000e+02,1.046158499999999947e+02
2.140000000000000000e+02,1.050565399999999983e+02
2.150000000000000000e+02,1.054964400000000069e+02
2.160000000000000000e+02,1.059355900000000048e+02
2.170000000000000000e+02,1.063739900000000063e+02
2.180000000000000000e+02,1.068116100000000017e+02
2.190000000000000000e+02,1.072484900000000039e+02
2.200000000000000000e+02,1.076846199999999953e+02
2.210000000000000000e+02,1.081199799999999982e+02
2.220000000000000000e+02,1.085545900000000046e+02
2.230000000000000000e+02,1.089884600000000034e+02
2.240000000000000000e+02,1.094215899999999948e+02
2.250000000000000000e+02,1.098539300000000054e+02
2.260000000000000000e+02,1.102854899999999958e+02
2.270000000000000000e+02,1.107162900000000008e+02
2.280000000000000000e+02,1.111463200000000029e+02
2.290000000000000000e+02,1.115755999999999943e+02
2.300000000000000000e+02,1.120040999999999940e+02
2.310000000000000000e+02,1.124318499999999972e+02
2.320000000000000000e+02,1.128588299999999975e+02
2.330000000000000000e+02,1.132850399999999951e+02
2.340000000000000000e+02,1.137104899999999930e+02
2.350000000000000000e+02,1.141351899999999944e+02
2.360000000000000000e+02,1.145591199999999930e+02
2.370000000000000000e+02,1.149822800000000029e+02
2.380000000000000000e+02,1.154047000000000054e+02
2.390000000000000000e+02,1.158263900000000035e+02
2.400000000000000000e+02,1.162473099999999988e+02
2.410000000000000000e+02,1.166674600000000055e+02
2.420000000000000000e+02,1.170868499999999983e+02
2.430000000000000000e+02,1.175054599999999994e+02
2.440000000000000000e+02,1.179233200000000039e+02
2.450000000000000000e+02,1.183404000000000025e+02
2.460000000000000000e+02,1.187567300000000046e+02
2.470000000000000000e+02,1.191722900000000038e+02
2.480000000000000000e+02,1.195870900000000034e+02
2.490000000000000000e+02,1.200011300000000034e+02
2.500000000000000000e+02,1.204144000000000005e+02
2.510000000000000000e+02,1.208269200000000012e+02
2.520000000000000000e+02,1.212386699999999990e+02
2.530000000000000000e+02,1.216496700000000004e+02
2.540000000000000000e+02,1.220598999999999990e+02
2.550000000000000000e+02,1.224693800000000010e+02
2.560000000000000000e+02,1.228780900000000003e+02
2.570000000000000000e+02,1.232860500000000030e+02
2.580000000000000000e+02,1.236932400000000030e+02
2.590000000000000000e+02,1.240996800000000064e+02
2.600000000000000000e+02,1.245053599999999960e+02
2.610000000000000000e+02,1.249102800000000002e+02
2.620000000000000000e+02,1.253144499999999937e+02
2.630000000000000000e+02,1.257178600000000017e+02
2.640000000000000000e+02,1.261205099999999959e+02
2.650000000000000000e+02,1.265224099999999936e+02
2.660000000000000000e+02,1.269235500000000059e+02
2.670000000000000000e+02,1.273239399999999932e+02
2.680000000000000000e+02,1.277235799999999983e+02
2.690000000000000000e+02,1.281224699999999928e+02
2.700000000000000000e+02,1.285205799999999954e+02
2.710000000000000000e+02,1.289179699999999968e+02
2.720000000000000000e+02,1.293145900000000097e+02
2.730000000000000000e+02,1.297104600000000119e+02
2.740000000000000000e+02,1.301055800000000033e+02
2.750000000000000000e+02,1.304999400000000094e+02
2.760000000000000000e+02,1.308935700000000111e+02
2.770000000000000000e+02,1.312864399999999989e+02
2.780000000000000000e+02,1.316785600000000045e+02
2.790000000000000000e+02,1.320699299999999994e+02
2.800000000000000000e+02,1.324605599999999868e+02
2.810000000000000000e+02,1.328504299999999887e+02
2.820000000000000000e+02,1.332395600000000115e+02
2.830000000000000000e+02,1.336279600000000016e+02
2.840000000000000000e+02,1.340155900000000031e+02
2.850000000000000000e+02,1.344025000000000034e+02
2.860000000000000000e+02,1.347886499999999899e+02
2.870000000000000000e+02,1.351740599999999972e+02
2.880000000000000000e+02,1.355587199999999939e+02
2.890000000000000000e+02,1.359426400000000115e+02
2.900000000000000000e+02,1.363258199999999931e+02
2.910000000000000000e+02,1.367082699999999988e+02
2.920000000000000000e+02,1.370899699999999939e+02
2.930000000000000000e+02,1.374709200000000067e+02
2.940000000000000000e+02,1.378511399999999867e+02
2.950000000000000000e+02,1.382306199999999876e+02
2.960000000000000000e+02,1.386093600000000094e+02
2.970000000000000000e+02,1.389873800000000017e+02
2.980000000000000000e+02,1.393646500000000117e+02
2.990000000000000000e+02,1.397412099999999953e+02
3.000000000000000000e+02,1.401170199999999966e+02
3.010000000000000000e+02,1.404920999999999935e+02
3.020000000000000000e+02,1.408664599999999893e+02
3.030000000000000000e+02,1.412400800000000061e+02
3.040000000000000000e+02,1.416129599999999868e+02
3.050000000000000000e+02,1.419851099999999917e+02
3.060000000000000000e+02,1.423565399999999954e+02
3.070000000000000000e+02,1.427272299999999916e+02
3.080000000000000000e+02,1.430971999999999866e+02
3.090000000000000000e+02,1.434664300000000026e+02
3.100000000000000000e+02,1.438349499999999921e+02
3.110000000000000000e+02,1.442027099999999962e+02
3.120000000000000000e+02,1.445697800000000086e+02
3.130000000000000000e+02,1.449361100000000135e+02
3.140000000000000000e+02,1.453017399999999952e+02
3.150000000000000000e+02,1.456666400000000010e+02
3.160000000000000000e+02,1.460308100000000024e+02
3.170000000000000000e+02,1.463942600000000027e+02
3.180000000000000000e+02,1.467569900000000018e+02
3.190000000000000000e+02,1.471189999999999998e+02
3.200000000000000000e+02,1.474802899999999966e+02
3.210000000000000000e+02,1.478408699999999953e+02
3.220000000000000000e+02,1.482007000000000119e+02
3.230000000000000000e+02,1.485598400000000083e+02
3.240000000000000000e+02,1.489182600000000036e+02
3.250000000000000000e+02,1.492759700000000009e+02
3.260000000000000000e+02,1.496329800000000034e+02
3.270000000000000000e+02,1.499892700000000048e+02
3.280000000000000000e+02,1.503448300000000017e+02
3.290000000000000000e+02,1.506996900000000039e+02
3.300000000000000000e+02,1.510538500000000113e+02
3.310000000000000000e+02,1.514072700000000111e+02
3.320000000000000000e+02,1.517600099999999941e+02
3.330000000000000000e+02,1.521120300000000043e+02
3.340000000000000000e+02,1.524633599999999944e+02
3.350000000000000000e+02,1.528139799999999866e+02
3.360000000000000000e+02,1.531638900000000092e+02
3.370000000000000000e+02,1.535130900000000054e+02
3.380000000000000000e+02,1.538615900000000067e+02
3.390000000000000000e+02,1.542093700000000069e+02
3.400000000000000000e+02,1.545564599999999871e+02
3.410000000000000000e+02,1.549028500000000008e+02
3.420000000000000000e+02,1.552485499999999945e+02
3.430000000000000000e+02,1.555935399999999902e+02
3.440000000000000000e+02,1.559378399999999942e+02
3.450000000000000000e+02,1.562814199999999971e+02
3.460000000000000000e+02,1.566243100000000084e+02
3.470000000000000000e+02,1.569665099999999995e+02
3.480000000000000000e+02,1.573080099999999959e+02
3.490000000000000000e+02,1.576488300000000038e+02
3.500000000000000000e+02,1.579889499999999884e+02
3.510000000000000000e+02,1.583283700000000067e+02
3.520000000000000000e+02,1.586671100000000081e+02
3.530000000000000000e+02,1.590051400000000115e+02
3.540000000000000000e+02,1.593425000000000011e+02
3.550000000000000000e+02,1.596791499999999928e+02
3.560000000000000000e+02,1.600151400000000024e+02
3.570000000000000000e+02,1.603504200000000139e+02
3.580000000000000000e+02,1.606850300000000118e+02
3.590000000000000000e+02,1.610189399999999864e+02
3.600000000000000000e+02,1.613521599999999978e+02
3.610000000000000000e+02,1.616847099999999955e+02
3.620000000000000000e+02,1.620165700000000015e+02
3.630000000000000000e+02,1.623477599999999939e+02
3.640000000000000000e+02,1.626782499999999914e+02
3.650000000000000000e+02,1.630080700000000036e+02
3.660000000000000000e+02,1.633371999999999957e+02
3.670000000000000000e+02,1.636656600000000026e+02
3.680000000000000000e+02,1.639934399999999926e+02
3.690000000000000000e+02,1.643205600000000004e+02
3.700000000000000000e+02,1.646469899999999882e+02
3.710000000000000000e+02,1.649727300000000128e+02
3.720000000000000000e+02,1.652978099999999984e+02
3.730000000000000000e+02,1.656222199999999987e+02
3.740000000000000000e+02,1.659459500000000105e+02
3.750000000000000000e+02,1.662690299999999866e+02
3.760000000000000000e+02,1.665913999999999930e+02
3.770000000000000000e+02,1.669131199999999922e+02
3.780000000000000000e+02,1.672341800000000092e+02
3.790000000000000000e+02,1.675545700000000124e+02
3.800000000000000000e+02,1.678742799999999988e+02
3.810000000000000000e+02,1.681933300000000031e+02
3.820000000000000000e+02,1.685116999999999905e+02
3.830000000000000000e+02,1.688294400000000053e+02
3.840000000000000000e+02,1.691465000000000032e+02
3.850000000000000000e+02,1.694628899999999874e+02
3.860000000000000000e+02,1.697786099999999863e+02
3.870000000000000000e+02,1.700936700000000030e+02
3.880000000000000000e+02,1.704080999999999904e+02
3.890000000000000000e+02,1.707218499999999892e+02
3.900000000000000000e+02,1.710349300000000028e+02
3.910000000000000000e+02,1.713473500000000058e+02
3.920000000000000000e+02,1.716591300000000047e+02
3.930000000000000000e+02,1.719702800000000025e+02
3.940000000000000000e+02,1.722807300000000055e+02
3.950000000000000000e+02,1.725905500000000075e+02
3.960000000000000000e+02,1.728996999999999957e+02
3.970000000000000000e+02,1.732082200000000114e+02
3.980000000000000000e+02,1.735160700000000134e+02
3.990000000000000000e+02,1.738232700000000079e+02
4.000000000000000000e+02,1.741298199999999952e+02
4.010000000000000000e+02,1.744357300000000066e+02
4.020000000000000000e+02,1.747410000000000139e+02
4.030000000000000000e+02,1.750456100000000106e+02
4.040000000000000000e+02,1.753495800000000031e+02
4.050000000000000000e+02,1.756528900000000135e+02
4.060000000000000000e+02,1.759555799999999977e+02
4.070000000000000000e+02,1.762576099999999997e+02
4.080000000000000000e+02,1.765589899999999943e+02
4.090000000000000000e+02,1.768597599999999943e+02
4.100000000000000000e+02,1.771598700000000122e+02
4.110000000000000000e+02,1.774593399999999974e+02
4.120000000000000000e+02,1.777581500000000005e+02
4.130000000000000000e+02,1.780563500000000090e+02
4.140000000000000000e+02,1.783539000000000101e+02
4.150000000000000000e+02,1.786508300000000133e+02
4.160000000000000000e+02,1.789471100000000092e+02
4.170000000000000000e+02,1.792427700000000073e+02
4.180000000000000000e+02,1.795377799999999979e+02
4.190000000000000000e+02,1.798321699999999908e+02
4.200000000000000000e+02,1.801259200000000078e+02
4.210000000000000000e+02,1.804190399999999954e+02
4.220000000000000000e+02,1.807115300000000104e+02
4.230000000000000000e+02,1.810033899999999960e+02
4.240000000000000000e+02,1.812946300000000122e+02
4.250000000000000000e+02,1.815852399999999989e+02
4.260000000000000000e+02,1.818752100000000098e+02
4.270000000000000000e+02,1.821645699999999977e+02
4.280000000000000000e+02,1.824532900000000097e+02
4.290000000000000000e+02,1.827414100000000019e+02
4.300000000000000000e+02,1.830288799999999867e+02
4.310000000000000000e+02,1.833157500000000084e+02
4.320000000000000000e+02,1.836019900000000007e+02
4.330000000000000000e+02,1.838876199999999983e+02
4.340000000000000000e+02,1.841726199999999949e+02
4.350000000000000000e+02,1.844569999999999936e+02
4.360000000000000000e+02,1.847407699999999977e+02
4.370000000000000000e+02,1.850239300000000071e+02
4.380000000000000000e+02,1.853064599999999871e+02
4.390000000000000000e+02,1.855883800000000008e+02
4.400000000000000000e+02,1.858696700000000135e+02
4.410000000000000000e+02,1.861503800000000126e+02
4.420000000000000000e+02,1.864304500000000075e+02
4.430000000000000000e+02,1.867099200000000110e+02
4.440000000000000000e+02,1.869887699999999882e+02
4.450000000000000000e+02,1.872670300000000054e+02
4.460000000000000000e+02,1.875446599999999933e+02
4.470000000000000000e+02,1.878216999999999928e+02
4.480000000000000000e+02,1.880981299999999976e+02
4.490000000000000000e+02,1.883739500000000078e+02
4.500000000000000000e+02,1.886491699999999980e+02
4.510000000000000000e+02,1.889237799999999936e+02
4.520000000000000000e+02,1.891977799999999945e+02
4.530000000000000000e+02,1.894711900000000071e+02
4.540000000000000000e+02,1.897439899999999966e+02
4.550000000000000000e+02,1.900161999999999978e+02
4.560000000000000000e+02,1.902878100000000074e+02
4.570000000000000000e+02,1.905588099999999940e+02
4.580000000000000000e+02,1.908292199999999923e+02
4.590000000000000000e+02,1.910990299999999991e+02
4.600000000000000000e+02,1.913682599999999923e+02
4.610000000000000000e+02,1.916368699999999876e+02
4.620000000000000000e+02,1.919048899999999946e+02
4.630000000000000000e+02,1.921723299999999881e+02
4.640000000000000000e+02,1.924391599999999869e+02
4.650000000000000000e+02,1.927054100000000005e+02
4.660000000000000000e+02,1.929710699999999974e+02
4.670000000000000000e+02,1.932361300000000028e+02
4.680000000000000000e+02,1.935006099999999947e+02
4.690000000000000000e+02,1.937645100000000014e+02
4.700000000000000000e+02,1.940278000000000134e+02
4.710000000000000000e+02,1.942905299999999897e+02
4.720000000000000000e+02,1.945526600000000030e+02
4.730000000000000000e+02,1.948142100000000028e+02
4.740000000000000000e+02,1.950751799999999889e+02
4.750000000000000000e+02,1.953355599999999868e+02
4.760000000000000000e+02,1.955953499999999963e+02
4.770000000000000000e+02,1.958545699999999954e+02
4.780000000000000000e+02,1.961132000000000062e+02
4.790000000000000000e+02,1.963712600000000066e+02
4.800000000000000000e+02,1.966287499999999966e+02
4.810000000000000000e+02,1.968856499999999983e+02
4.820000000000000000e+02,1.971419799999999896e+02
4.830000000000000000e+02,1.973977199999999925e+02
4.840000000000000000e+02,1.976529099999999914e+02
4.850000000000000000e+02,1.979074999999999989e+02
4.860000000000000000e+02,1.981615299999999991e+02
4.870000000000000000e+02,1.984149899999999889e+02
4.880000000000000000e+02,1.986678899999999999e+02
4.890000000000000000e+02,1.989201999999999941e+02
4.900000000000000000e+02,1.991719500000000096e+02
4.910000000000000000e+02,1.994231299999999862e+02
4.920000000000000000e+02,1.996737400000000093e+02
4.930000000000000000e+02,1.999237799999999936e+02
4.940000000000000000e+02,2.001732499999999959e+02
4.950000000000000000e+02,2.004221599999999910e+02
4.960000000000000000e+02,2.006705200000000104e+02
4.970000000000000000e+02,2.009182999999999879e+02
4.980000000000000000e+02,2.011655299999999897e+02
4.990000000000000000e+02,2.014121900000000096e+02
5.000000000000000000e+02,2.016582899999999938e+02
5.010000000000000000e+02,2.019038400000000024e+02
5.020000000000000000e+02,2.021488200000000006e+02
5.030000000000000000e+02,2.023932299999999884e+02
5.040000000000000000e+02,2.026371200000000101e+02
5.050000000000000000e+02,2.028804199999999867e+02
5.060000000000000000e+02,2.031231799999999907e+02
5.070000000000000000e+02,2.033653899999999908e+02
5.080000000000000000e+02,2.036070300000000088e+02
5.090000000000000000e+02,2.038481299999999976e+02
5.100000000000000000e+02,2.040886700000000076e+02
5.110000000000000000e+02,2.043286699999999882e+02
5.120000000000000000e+02,2.045681199999999933e+02
5.130000000000000000e+02,2.048070099999999911e+02
5.140000000000000000e+02,2.050453599999999881e+02
5.150000000000000000e+02,2.052831600000000094e+02
5.160000000000000000e+02,2.055204200000000014e+02
5.170000000000000000e+02,2.057571299999999894e+02
5.180000000000000000e+02,2.059932900000000018e+02
5.190000000000000000e+02,2.062289100000000133e+02
5.200000000000000000e+02,2.064639899999999955e+02
5.210000000000000000e+02,2.066985200000000020e+02
5.220000000000000000e+02,2.069325100000000077e+02
5.230000000000000000e+02,2.071659500000000094e+02
5.240000000000000000e+02,2.073988799999999912e+02
5.250000000000000000e+02,2.076312599999999975e+02
5.260000000000000000e+02,2.078631000000000029e+02
5.270000000000000000e+02,2.080943900000000042e+02
5.280000000000000000e+02,2.083251500000000078e+02
5.290000000000000000e+02,2.085553700000000106e+02
5.300000000000000000e+02,2.087850599999999872e+02
5.310000000000000000e+02,2.090142400000000009e+02
5.320000000000000000e+02,2.092428700000000106e+02
5.330000000000000000e+02,2.094709599999999909e+02
5.340000000000000000e+02,2.096985300000000052e+02
5.350000000000000000e+02,2.099255699999999933e+02
5.360000000000000000e+02,2.101520700000000090e+02
5.370000000000000000e+02,2.103780500000000018e+02
5.380000000000000000e+02,2.106035200000000032e+02
5.390000000000000000e+02,2.108284500000000037e+02
5.400000000000000000e+02,2.110528400000000033e+02
5.410000000000000000e+02,2.112767200000000116e+02
5.420000000000000000e+02,2.115000799999999970e+02
5.430000000000000000e+02,2.117229000000000099e+02
5.440000000000000000e+02,2.119452100000000030e+02
5.450000000000000000e+02,2.121669899999999984e+02
5.460000000000000000e+02,2.123882600000000025e+02
5.470000000000000000e+02,2.126090100000000120e+02
5.480000000000000000e+02,2.128292399999999986e+02
5.490000000000000000e+02,2.130489699999999971e+02
5.500000000000000000e+02,2.132681599999999946e+02
5.510000000000000000e+02,2.134868500000000040e+02
5.520000000000000000e+02,2.137050000000000125e+02
5.530000000000000000e+02,2.139226500000000044e+02
5.540000000000000000e+02,2.141397900000000050e+02
5.550000000000000000e+02,2.143564000000000078e+02
5.560000000000000000e+02,2.145725099999999941e+02
5.570000000000000000e+02,2.147881199999999922e+02
5.580000000000000000e+02,2.150031999999999925e+02
5.590000000000000000e+02,2.152177700000000016e+02
5.600000000000000000e+02,2.154318499999999972e+02
5.610000000000000000e+02,2.156454200000000014e+02
5.620000000000000000e+02,2.158584700000000112e+02
5.630000000000000000e+02,2.160710300000000075e+02
5.640000000000000000e+02,2.162830800000000124e+02
5.650000000000000000e+02,2.164946300000000008e+02
5.660000000000000000e+02,2.167056599999999946e+02
5.670000000000000000e+02,2.169162000000000035e+02
5.680000000000000000e+02,2.171262399999999957e+02
5.690000000000000000e+02,2.173357699999999966e+02
5.700000000000000000e+02,2.175448199999999872e+02
5.710000000000000000e+02,2.177533400000000086e+02
5.720000000000000000e+02,2.179613799999999912e+02
5.730000000000000000e+02,2.181689299999999889e+02
5.740000000000000000e+02,2.183759799999999984e+02
5.750000000000000000e+02,2.185825199999999882e+02
5.760000000000000000e+02,2.187885699999999929e+02
5.770000000000000000e+02,2.189941300000000126e+02
5.780000000000000000e+02,2.191991899999999873e+02
5.790000000000000000e+02,2.194037600000000054e+02
5.800000000000000000e+02,2.196078500000000133e+02
5.810000000000000000e+02,2.198114300000000014e+02
5.820000000000000000e+02,2.200145400000000109e+02
5.830000000000000000e+02,2.202171500000000037e+02
5.840000000000000000e+02,2.204192799999999863e+02
5.850000000000000000e+02,2.206209100000000092e+02
5.860000000000000000e+02,2.208220499999999902e+02
5.870000000000000000e+02,2.210227199999999925e+02
5.880000000000000000e+02,2.212229000000000099e+02
5.890000000000000000e+02,2.214225900000000138e+02
5.900000000000000000e+02,2.216218000000000075e+02
5.910000000000000000e+02,2.218205299999999909e+02
5.920000000000000000e+02,2.220187699999999893e+02
5.930000000000000000e+02,2.222165200000000027e+02
5.940000000000000000e+02,2.224138000000000090e+02
5.950000000000000000e+02,2.226106100000000083e+02
5.960000000000000000e+02,2.228069299999999942e+02
5.970000000000000000e+02,2.230027800000000013e+02
5.980000000000000000e+02,2.231981499999999983e+02
5.990000000000000000e+02,2.233930400000000134e+02