# Time [s], Thickness [m]
1.000000000000000000e+00,8.000000400000000303e-03
2.000000000000000000e+00,8.000000400000000303e-03
3.000000000000000000e+00,8.000000400000000303e-03
4.000000000000000000e+00,8.000000400000000303e-03
5.000000000000000000e+00,8.000000400000000303e-03
6.000000000000000000e+00,8.000000400000000303e-03
7.000000000000000000e+00,8.000000400000000303e-03
8.000000000000000000e+00,8.000000400000000303e-03
9.000000000000000000e+00,8.000000400000000303e-03
1.000000000000000000e+01,8.000000400000000303e-03
1.100000000000000000e+01,8.000000400000000303e-03
1.200000000000000000e+01,8.000000400000000303e-03
1.300000000000000000e+01,8.000000400000000303e-03
1.400000000000000000e+01,8.000000400000000303e-03
1.500000000000000000e+01,8.000000400000000303e-03
1.600000000000000000e+01,8.000000400000000303e-03
1.700000000000000000e+01,8.000000400000000303e-03
1.800000000000000000e+01,8.000000400000000303e-03
1.900000000000000000e+01,8.000000400000000303e-03
2.000000000000000000e+01,8.000000400000000303e-03
2.100000000000000000e+01,8.000000400000000303e-03
2.200000000000000000e+01,8.000000400000000303e-03
2.300000000000000000e+01,8.000000400000000303e-03
2.400000000000000000e+01,8.000000400000000303e-03
2.500000000000000000e+01,8.000000400000000303e-03
2.600000000000000000e+01,8.000000400000000303e-03
2.700000000000000000e+01,8.000000400000000303e-03
2.800000000000000000e+01,8.000000400000000303e-03
2.900000000000000000e+01,8.000000400000000303e-03
3.000000000000000000e+01,8.000000400000000303e-03
3.100000000000000000e+01,8.000000400000000303e-03
3.200000000000000000e+01,8.000000400000000303e-03
3.300000000000000000e+01,8.000000400000000303e-03
3.400000000000000000e+01,8.000000400000000303e-03
3.500000000000000000e+01,8.000000400000000303e-03
3.600000000000000000e+01,8.000000400000000303e-03
3.700000000000000000e+01,8.000000400000000303e-03
3.800000000000000000e+01,8.000000400000000303e-03
3.900000000000000000e+01,8.000000400000000303e-03
4.000000000000000000e+01,8.000000400000000303e-03
4.100000000000000000e+01,8.000000400000000303e-03
4.200000000000000000e+01,8.000000400000000303e-03
4.300000000000000000e+01,8.000000400000000303e-03
4.400000000000000000e+01,8.000000400000000303e-03
4.500000000000000000e+01,8.000000400000000303e-03
4.600000000000000000e+01,8.000000400000000303e-03
4.700000000000000000e+01,8.000000400000000303e-03
4.800000000000000000e+01,8.000000400000000303e-03
4.900000000000000000e+01,8.000000400000000303e-03
5.000000000000000000e+01,8.000000400000000303e-03
5.100000000000000000e+01,8.000000400000000303e-03
5.200000000000000000e+01,8.000000400000000303e-03
5.300000000000000000e+01,8.000000400000000303e-03
5.400000000000000000e+01,8.000000400000000303e-03
5.500000000000000000e+01,8.000000400000000303e-03
5.600000000000000000e+01,8.000000400000000303e-03
5.700000000000000000e+01,8.000000400000000303e-03
5.800000000000000000e+01,8.000000400000000303e-03
5.900000000000000000e+01,8.000000400000000303e-03
6.000000000000000000e+01,8.000000400000000303e-03
6.100000000000000000e+01,8.000000400000000303e-03
6.200000000000000000e+01,8.000000400000000303e-03
6.300000000000000000e+01,8.000000400000000303e-03
6.400000000000000000e+01,8.000000400000000303e-03
6.500000000000000000e+01,8.000000400000000303e-03
6.600000000000000000e+01,8.000000400000000303e-03
6.700000000000000000e+01,8.000000400000000303e-03
6.800000000000000000e+01,8.000000400000000303e-03
6.900000000000000000e+01,8.000000400000000303e-03
7.000000000000000000e+01,8.000000400000000303e-03
7.100000000000000000e+01,8.000000400000000303e-03
7.200000000000000000e+01,8.000000400000000303e-03
7.300000000000000000e+01,8.000000400000000303e-03
7.400000000000000000e+01,8.000000400000000303e-03
7.500000000000000000e+01,8.000000400000000303e-03
7.600000000000000000e+01,8.000000400000000303e-03
7.700000000000000000e+01,8.000000400000000303e-03
7.800000000000000000e+01,8.000000400000000303e-03
7.900000000000000000e+01,8.000000400000000303e-03
8.000000000000000000e+01,8.000000400000000303e-03
8.100000000000000000e+01,8.000000400000000303e-03
8.200000000000000000e+01,8.000000400000000303e-03
8.300000000000000000e+01,8.000000400000000303e-03
8.400000000000000000e+01,8.000000400000000303e-03
8.500000000000000000e+01,8.000000400000000303e-03
8.600000000000000000e+01,8.000000400000000303e-03
8.700000000000000000e+01,8.000000400000000303e-03
8.800000000000000000e+01,8.000000400000000303e-03
8.900000000000000000e+01,8.000000400000000303e-03
9.000000000000000000e+01,8.000000400000000303e-03
9.100000000000000000e+01,8.000000400000000303e-03
9.200000000000000000e+01,8.000000400000000303e-03
9.300000000000000000e+01,8.000000400000000303e-03
9.400000000000000000e+01,8.000000400000000303e-03
9.500000000000000000e+01,8.000000400000000303e-03
9.600000000000000000e+01,8.000000400000000303e-03
9.700000000000000000e+01,8.000000400000000303e-03
9.800000000000000000e+01,8.000000400000000303e-03
9.900000000000000000e+01,8.000000400000000303e-03
1.000000000000000000e+02,8.000000400000000303e-03
1.010000000000000000e+02,8.000000400000000303e-03
1.020000000000000000e+02,8.000000400000000303e-03
1.030000000000000000e+02,8.000000400000000303e-03
1.040000000000000000e+02,8.000000400000000303e-03
1.050000000000000000e+02,8.000000400000000303e-03
1.060000000000000000e+02,8.000000400000000303e-03
1.070000000000000000e+02,8.000000400000000303e-03
1.080000000000000000e+02,8.000000400000000303e-03
1.090000000000000000e+02,8.000000400000000303e-03
1.100000000000000000e+02,8.000000400000000303e-03
1.110000000000000000e+02,8.000000400000000303e-03
1.120000000000000000e+02,8.000000400000000303e-03
1.130000000000000000e+02,8.000000400000000303e-03
1.140000000000000000e+02,8.000000400000000303e-03
1.150000000000000000e+02,8.000000400000000303e-03
1.160000000000000000e+02,8.000000400000000303e-03
1.170000000000000000e+02,8.000000400000000303e-03
1.180000000000000000e+02,8.000000400000000303e-03
1.190000000000000000e+02,8.000000400000000303e-03
1.200000000000000000e+02,8.000000400000000303e-03
1.210000000000000000e+02,8.000000400000000303e-03
1.220000000000000000e+02,8.000000400000000303e-03
1.230000000000000000e+02,8.000000400000000303e-03
1.240000000000000000e+02,8.000000400000000303e-03
1.250000000000000000e+02,8.000000400000000303e-03
1.260000000000000000e+02,8.000000400000000303e-03
1.270000000000000000e+02,8.000000400000000303e-03
1.280000000000000000e+02,8.000000400000000303e-03
1.290000000000000000e+02,8.000000400000000303e-03
1.300000000000000000e+02,8.000000400000000303e-03
1.310000000000000000e+02,8.000000400000000303e-03
1.320000000000000000e+02,8.000000400000000303e-03
1.330000000000000000e+02,8.000000400000000303e-03
1.340000000000000000e+02,8.000000400000000303e-03
1.350000000000000000e+02,8.000000400000000303e-03
1.360000000000000000e+02,8.000000400000000303e-03
1.370000000000000000e+02,8.000000400000000303e-03
1.380000000000000000e+02,8.000000400000000303e-03
1.390000000000000000e+02,8.000000400000000303e-03
1.400000000000000000e+02,8.000000400000000303e-03
1.410000000000000000e+02,8.000000400000000303e-03
1.420000000000000000e+02,8.000000400000000303e-03
1.430000000000000000e+02,8.000000400000000303e-03
1.440000000000000000e+02,8.000000400000000303e-03
1.450000000000000000e+02,8.000000400000000303e-03
1.460000000000000000e+02,8.000000400000000303e-03
1.470000000000000000e+02,8.000000400000000303e-03
1.480000000000000000e+02,8.000000400000000303e-03
1.490000000000000000e+02,8.000000400000000303e-03
1.500000000000000000e+02,8.000000400000000303e-03
1.510000000000000000e+02,8.000000400000000303e-03
1.520000000000000000e+02,8.000000400000000303e-03
1.530000000000000000e+02,8.000000400000000303e-03
1.540000000000000000e+02,8.000000400000000303e-03
1.550000000000000000e+02,8.000000400000000303e-03
1.560000000000000000e+02,8.000000400000000303e-03
1.570000000000000000e+02,8.000000400000000303e-03
1.580000000000000000e+02,8.000000400000000303e-03
1.590000000000000000e+02,8.000000400000000303e-03
1.600000000000000000e+02,8.000000400000000303e-03
1.610000000000000000e+02,8.000000400000000303e-03
1.620000000000000000e+02,8.000000400000000303e-03
1.630000000000000000e+02,8.000000400000000303e-03
1.640000000000000000e+02,8.000000400000000303e-03
1.650000000000000000e+02,8.000000400000000303e-03
1.660000000000000000e+02,8.000000400000000303e-03
1.670000000000000000e+02,8.000000400000000303e-03
1.680000000000000000e+02,8.000000400000000303e-03
1.690000000000000000e+02,8.000000400000000303e-03
1.700000000000000000e+02,8.000000400000000303e-03
1.710000000000000000e+02,8.000000400000000303e-03
1.720000000000000000e+02,8.000000400000000303e-03
1.730000000000000000e+02,8.000000400000000303e-03
1.740000000000000000e+02,8.000000400000000303e-03
1.750000000000000000e+02,8.000000400000000303e-03
1.760000000000000000e+02,8.000000400000000303e-03
1.770000000000000000e+02,8.000000400000000303e-03
1.780000000000000000e+02,8.000000400000000303e-03
1.790000000000000000e+02,8.000000400000000303e-03
1.800000000000000000e+02,8.000000400000000303e-03
1.810000000000000000e+02,8.000000400000000303e-03
1.820000000000000000e+02,8.000000400000000303e-03
1.830000000000000000e+02,8.000000400000000303e-03
1.840000000000000000e+02,8.000000400000000303e-03
1.850000000000000000e+02,8.000000400000000303e-03
1.860000000000000000e+02,8.000000400000000303e-03
1.870000000000000000e+02,8.000000400000000303e-03
1.880000000000000000e+02,8.000000400000000303e-03
1.890000000000000000e+02,8.000000400000000303e-03
1.900000000000000000e+02,8.000000400000000303e-03
1.910000000000000000e+02,8.000000400000000303e-03
1.920000000000000000e+02,8.000000400000000303e-03
1.930000000000000000e+02,7.999999400000000829e-03
1.940000000000000000e+02,7.999999400000000829e-03
1.950000000000000000e+02,7.999999400000000829e-03
1.960000000000000000e+02,7.999999400000000829e-03
1.970000000000000000e+02,7.999999400000000829e-03
1.980000000000000000e+02,7.999999400000000829e-03
1.990000000000000000e+02,7.999999400000000829e-03
2.000000000000000000e+02,7.999999400000000829e-03
2.010000000000000000e+02,7.999999400000000829e-03
2.020000000000000000e+02,7.999999400000000829e-03
2.030000000000000000e+02,7.999999400000000829e-03
2.040000000000000000e+02,7.999999400000000829e-03
2.050000000000000000e+02,7.999999400000000829e-03
2.060000000000000000e+02,7.999999400000000829e-03
2.070000000000000000e+02,7.999999400000000829e-03
2.080000000000000000e+02,7.999999400000000829e-03
2.090000000000000000e+02,7.999999400000000829e-03
2.100000000000000000e+02,7.999999400000000829e-03
2.110000000000000000e+02,7.999999400000000829e-03
2.120000000000000000e+02,7.999999400000000829e-03
2.130000000000000000e+02,7.999999400000000829e-03
2.140000000000000000e+02,7.999999400000000829e-03
2.150000000000000000e+02,7.999999400000000829e-03
2.160000000000000000e+02,7.999999400000000829e-03
2.170000000000000000e+02,7.999999400000000829e-03
2.180000000000000000e+02,7.999999400000000829e-03
2.190000000000000000e+02,7.999999400000000829e-03
2.200000000000000000e+02,7.999999400000000829e-03
2.210000000000000000e+02,7.999999400000000829e-03
2.220000000000000000e+02,7.999999400000000829e-03
2.230000000000000000e+02,7.999999400000000829e-03
2.240000000000000000e+02,7.999999400000000829e-03
2.250000000000000000e+02,7.999999400000000829e-03
2.260000000000000000e+02,7.999999400000000829e-03
2.270000000000000000e+02,7.999999400000000829e-03
2.280000000000000000e+02,7.999999400000000829e-03
2.290000000000000000e+02,7.999999400000000829e-03
2.300000000000000000e+02,7.999999400000000829e-03
2.310000000000000000e+02,7.999999400000000829e-03
2.320000000000000000e+02,7.999999400000000829e-03
2.330000000000000000e+02,7.999999400000000829e-03
2.340000000000000000e+02,7.999999400000000829e-03
2.350000000000000000e+02,7.999999400000000829e-03
2.360000000000000000e+02,7.999999400000000829e-03
2.370000000000000000e+02,7.999999400000000829e-03
2.380000000000000000e+02,7.999999400000000829e-03
2.390000000000000000e+02,7.999999400000000829e-03
2.400000000000000000e+02,7.999999400000000829e-03
2.410000000000000000e+02,7.999999400000000829e-03
2.420000000000000000e+02,7.999999400000000829e-03
2.430000000000000000e+02,7.999999400000000829e-03
2.440000000000000000e+02,7.999999400000000829e-03
2.450000000000000000e+02,7.999999400000000829e-03
2.460000000000000000e+02,7.999999400000000829e-03
2.470000000000000000e+02,7.999999400000000829e-03
2.480000000000000000e+02,7.999999400000000829e-03
2.490000000000000000e+02,7.999999400000000829e-03
2.500000000000000000e+02,7.999999400000000829e-03
2.510000000000000000e+02,7.999999400000000829e-03
2.520000000000000000e+02,7.999999400000000829e-03
2.530000000000000000e+02,7.999999400000000829e-03
2.540000000000000000e+02,7.999999400000000829e-03
2.550000000000000000e+02,7.999999400000000829e-03
2.560000000000000000e+02,7.999999400000000829e-03
2.570000000000000000e+02,7.999999400000000829e-03
2.580000000000000000e+02,7.999999400000000829e-03
2.590000000000000000e+02,7.999998499999999221e-03
2.600000000000000000e+02,7.999998499999999221e-03
2.610000000000000000e+02,7.999998499999999221e-03
2.620000000000000000e+02,7.999998499999999221e-03
2.630000000000000000e+02,7.999998499999999221e-03
2.640000000000000000e+02,7.999998499999999221e-03
2.650000000000000000e+02,7.999998499999999221e-03
2.660000000000000000e+02,7.999998499999999221e-03
2.670000000000000000e+02,7.999998499999999221e-03
2.680000000000000000e+02,7.999998499999999221e-03
2.690000000000000000e+02,7.999998499999999221e-03
2.700000000000000000e+02,7.999998499999999221e-03
2.710000000000000000e+02,7.999998499999999221e-03
2.720000000000000000e+02,7.999998499999999221e-03
2.730000000000000000e+02,7.999998499999999221e-03
2.740000000000000000e+02,7.999998499999999221e-03
2.750000000000000000e+02,7.999998499999999221e-03
2.760000000000000000e+02,7.999998499999999221e-03
2.770000000000000000e+02,7.999998499999999221e-03
2.780000000000000000e+02,7.999998499999999221e-03
2.790000000000000000e+02,7.999997599999999348e-03
2.800000000000000000e+02,7.999997599999999348e-03
2.810000000000000000e+02,7.999997599999999348e-03
2.820000000000000000e+02,7.999997599999999348e-03
2.830000000000000000e+02,7.999997599999999348e-03
2.840000000000000000e+02,7.999997599999999348e-03
2.850000000000000000e+02,7.999997599999999348e-03
2.860000000000000000e+02,7.999997599999999348e-03
2.870000000000000000e+02,7.999997599999999348e-03
2.880000000000000000e+02,7.999997599999999348e-03
2.890000000000000000e+02,7.999997599999999348e-03
2.900000000000000000e+02,7.999997599999999348e-03
2.910000000000000000e+02,7.999997599999999348e-03
2.920000000000000000e+02,7.999996699999999475e-03
2.930000000000000000e+02,7.999996699999999475e-03
2.940000000000000000e+02,7.999996699999999475e-03
2.950000000000000000e+02,7.999996699999999475e-03
2.960000000000000000e+02,7.999996699999999475e-03
2.970000000000000000e+02,7.999996699999999475e-03
2.980000000000000000e+02,7.999996699999999475e-03
2.990000000000000000e+02,7.999996699999999475e-03
3.000000000000000000e+02,7.999996699999999475e-03
3.010000000000000000e+02,7.999995700000000001e-03
3.020000000000000000e+02,7.999995700000000001e-03
3.030000000000000000e+02,7.999995700000000001e-03
3.040000000000000000e+02,7.999995700000000001e-03
3.050000000000000000e+02,7.999995700000000001e-03
3.060000000000000000e+02,7.999995700000000001e-03
3.070000000000000000e+02,7.999995700000000001e-03
3.080000000000000000e+02,7.999994800000000128e-03
3.090000000000000000e+02,7.999994800000000128e-03
3.100000000000000000e+02,7.999994800000000128e-03
3.110000000000000000e+02,7.999994800000000128e-03
3.120000000000000000e+02,7.999994800000000128e-03
3.130000000000000000e+02,7.999994800000000128e-03
3.140000000000000000e+02,7.999993900000000255e-03
3.150000000000000000e+02,7.999993900000000255e-03
3.160000000000000000e+02,7.999993900000000255e-03
3.170000000000000000e+02,7.999993900000000255e-03
3.180000000000000000e+02,7.999993900000000255e-03
3.190000000000000000e+02,7.999992900000000781e-03
3.200000000000000000e+02,7.999992900000000781e-03
3.210000000000000000e+02,7.999992900000000781e-03
3.220000000000000000e+02,7.999992900000000781e-03
3.230000000000000000e+02,7.999992900000000781e-03
3.240000000000000000e+02,7.999991999999999173e-03
3.250000000000000000e+02,7.999991999999999173e-03
3.260000000000000000e+02,7.999991999999999173e-03
3.270000000000000000e+02,7.999991999999999173e-03
3.280000000000000000e+02,7.999991099999999300e-03
3.290000000000000000e+02,7.999991099999999300e-03
3.300000000000000000e+02,7.999991099999999300e-03
3.310000000000000000e+02,7.999991099999999300e-03
3.320000000000000000e+02,7.999990099999999826e-03
3.330000000000000000e+02,7.999990099999999826e-03
3.340000000000000000e+02,7.999990099999999826e-03
3.350000000000000000e+02,7.999989199999999953e-03
3.360000000000000000e+02,7.999989199999999953e-03
3.370000000000000000e+02,7.999989199999999953e-03
3.380000000000000000e+02,7.999989199999999953e-03
3.390000000000000000e+02,7.999988300000000080e-03
3.400000000000000000e+02,7.999988300000000080e-03
3.410000000000000000e+02,7.999987300000000606e-03
3.420000000000000000e+02,7.999987300000000606e-03
3.430000000000000000e+02,7.999987300000000606e-03
3.440000000000000000e+02,7.999986400000000733e-03
3.450000000000000000e+02,7.999986400000000733e-03
3.460000000000000000e+02,7.999986400000000733e-03
3.470000000000000000e+02,7.999985500000000860e-03
3.480000000000000000e+02,7.999985500000000860e-03
3.490000000000000000e+02,7.999984499999999651e-03
3.500000000000000000e+02,7.999984499999999651e-03
3.510000000000000000e+02,7.999983599999999778e-03
3.520000000000000000e+02,7.999983599999999778e-03
3.530000000000000000e+02,7.999983599999999778e-03
3.540000000000000000e+02,7.999982699999999905e-03
3.550000000000000000e+02,7.999982699999999905e-03
3.560000000000000000e+02,7.999981800000000032e-03
3.570000000000000000e+02,7.999981800000000032e-03
3.580000000000000000e+02,7.999980800000000558e-03
3.590000000000000000e+02,7.999979900000000685e-03
3.600000000000000000e+02,7.999979900000000685e-03
3.610000000000000000e+02,7.999979000000000812e-03
3.620000000000000000e+02,7.999979000000000812e-03
3.630000000000000000e+02,7.999977999999999603e-03
3.640000000000000000e+02,7.999977999999999603e-03
3.650000000000000000e+02,7.999977099999999730e-03
3.660000000000000000e+02,7.999976199999999857e-03
3.670000000000000000e+02,7.999976199999999857e-03
3.680000000000000000e+02,7.999975200000000383e-03
3.690000000000000000e+02,7.999974300000000510e-03
3.700000000000000000e+02,7.999974300000000510e-03
3.710000000000000000e+02,7.999973400000000637e-03
3.720000000000000000e+02,7.999972399999999428e-03
3.730000000000000000e+02,7.999971499999999555e-03
3.740000000000000000e+02,7.999971499999999555e-03
3.750000000000000000e+02,7.999970599999999682e-03
3.760000000000000000e+02,7.999969600000000208e-03
3.770000000000000000e+02,7.999968700000000335e-03
3.780000000000000000e+02,7.999967800000000462e-03
3.790000000000000000e+02,7.999967800000000462e-03
3.800000000000000000e+02,7.999966900000000589e-03
3.810000000000000000e+02,7.999965899999999380e-03
3.820000000000000000e+02,7.999964999999999507e-03
3.830000000000000000e+02,7.999964099999999634e-03
3.840000000000000000e+02,7.999963100000000160e-03
3.850000000000000000e+02,7.999962200000000287e-03
3.860000000000000000e+02,7.999961300000000414e-03
3.870000000000000000e+02,7.999960299999999205e-03
3.880000000000000000e+02,7.999959399999999332e-03
3.890000000000000000e+02,7.999958499999999459e-03
3.900000000000000000e+02,7.999957499999999985e-03
3.910000000000000000e+02,7.999956600000000112e-03
3.920000000000000000e+02,7.999955700000000239e-03
3.930000000000000000e+02,7.999954700000000765e-03
3.940000000000000000e+02,7.999952899999999284e-03
3.950000000000000000e+02,7.999951999999999411e-03
3.960000000000000000e+02,7.999950999999999937e-03
3.970000000000000000e+02,7.999950100000000064e-03
3.980000000000000000e+02,7.999948200000000717e-03
3.990000000000000000e+02,7.999947300000000844e-03
4.000000000000000000e+02,7.999946399999999236e-03
4.010000000000000000e+02,7.999944499999999889e-03
4.020000000000000000e+02,7.999943600000000016e-03
4.030000000000000000e+02,7.999942600000000542e-03
4.040000000000000000e+02,7.999940800000000796e-03
4.050000000000000000e+02,7.999939799999999587e-03
4.060000000000000000e+02,7.999937999999999841e-03
4.070000000000000000e+02,7.999937099999999968e-03
4.080000000000000000e+02,7.999935200000000621e-03
4.090000000000000000e+02,7.999933299999999539e-03
4.100000000000000000e+02,7.999932399999999666e-03
4.110000000000000000e+02,7.999930500000000319e-03
4.120000000000000000e+02,7.999928700000000573e-03
4.130000000000000000e+02,7.999927699999999364e-03
4.140000000000000000e+02,7.999925899999999618e-03
4.150000000000000000e+02,7.999924000000000271e-03
4.160000000000000000e+02,7.999922099999999189e-03
4.170000000000000000e+02,7.999920299999999443e-03
4.180000000000000000e+02,7.999918400000000096e-03
4.190000000000000000e+02,7.999916600000000350e-03
4.200000000000000000e+02,7.999914699999999268e-03
4.210000000000000000e+02,7.999912799999999921e-03
4.220000000000000000e+02,7.999911000000000175e-03
4.230000000000000000e+02,7.999909100000000828e-03
4.240000000000000000e+02,7.999907199999999746e-03
4.250000000000000000e+02,7.999905400000000000e-03
4.260000000000000000e+02,7.999902600000000780e-03
4.270000000000000000e+02,7.999900699999999698e-03
4.280000000000000000e+02,7.999898899999999952e-03
4.290000000000000000e+02,7.999896100000000732e-03
4.300000000000000000e+02,7.999894199999999650e-03
4.310000000000000000e+02,7.999891400000000430e-03
4.320000000000000000e+02,7.999889600000000683e-03
4.330000000000000000e+02,7.999886799999999729e-03
4.340000000000000000e+02,7.999884900000000382e-03
4.350000000000000000e+02,7.999882099999999427e-03
4.360000000000000000e+02,7.999879300000000207e-03
4.370000000000000000e+02,7.999876499999999252e-03
4.380000000000000000e+02,7.999873700000000032e-03
4.390000000000000000e+02,7.999871900000000285e-03
4.400000000000000000e+02,7.999869099999999331e-03
4.410000000000000000e+02,7.999866300000000111e-03
4.420000000000000000e+02,7.999862499999999682e-03
4.430000000000000000e+02,7.999859800000000062e-03
4.440000000000000000e+02,7.999857000000000842e-03
4.450000000000000000e+02,7.999854199999999887e-03
4.460000000000000000e+02,7.999851400000000667e-03
4.470000000000000000e+02,7.999847600000000239e-03
4.480000000000000000e+02,7.999844799999999284e-03
4.490000000000000000e+02,7.999841100000000191e-03
4.500000000000000000e+02,7.999838299999999236e-03
4.510000000000000000e+02,7.999834600000000143e-03
4.520000000000000000e+02,7.999830899999999315e-03
4.530000000000000000e+02,7.999827200000000221e-03
4.540000000000000000e+02,7.999824399999999266e-03
4.550000000000000000e+02,7.999820600000000573e-03
4.560000000000000000e+02,7.999816899999999745e-03
4.570000000000000000e+02,7.999813200000000651e-03
4.580000000000000000e+02,7.999809499999999823e-03
4.590000000000000000e+02,7.999804799999999522e-03
4.600000000000000000e+02,7.999801100000000428e-03
4.610000000000000000e+02,7.999797399999999600e-03
4.620000000000000000e+02,7.999792699999999299e-03
4.630000000000000000e+02,7.999789000000000205e-03
4.640000000000000000e+02,7.999784299999999904e-03
4.650000000000000000e+02,7.999779699999999202e-03
4.660000000000000000e+02,7.999775900000000509e-03
4.670000000000000000e+02,7.999771299999999807e-03
4.680000000000000000e+02,7.999766599999999506e-03
4.690000000000000000e+02,7.999762000000000539e-03
4.700000000000000000e+02,7.999757300000000237e-03
4.710000000000000000e+02,7.999751700000000063e-03
4.720000000000000000e+02,7.999747099999999361e-03
4.730000000000000000e+02,7.999742400000000794e-03
4.740000000000000000e+02,7.999736800000000619e-03
4.750000000000000000e+02,7.999732199999999918e-03
4.760000000000000000e+02,7.999726599999999743e-03
4.770000000000000000e+02,7.999720999999999568e-03
4.780000000000000000e+02,7.999715399999999393e-03
4.790000000000000000e+02,7.999709799999999219e-03
4.800000000000000000e+02,7.999704200000000778e-03
4.810000000000000000e+02,7.999698600000000603e-03
4.820000000000000000e+02,7.999693000000000428e-03
4.830000000000000000e+02,7.999686500000000380e-03
4.840000000000000000e+02,7.999680900000000205e-03
4.850000000000000000e+02,7.999674400000000157e-03
4.860000000000000000e+02,7.999668799999999982e-03
4.870000000000000000e+02,7.999662299999999934e-03
4.880000000000000000e+02,7.999655799999999886e-03
4.890000000000000000e+02,7.999649299999999838e-03
4.900000000000000000e+02,7.999641800000000316e-03
4.910000000000000000e+02,7.999635300000000268e-03
4.920000000000000000e+02,7.999628800000000220e-03
4.930000000000000000e+02,7.999621300000000698e-03
4.940000000000000000e+02,7.999613900000000777e-03
4.950000000000000000e+02,7.999607400000000729e-03
4.960000000000000000e+02,7.999599899999999472e-03
4.970000000000000000e+02,7.999592499999999551e-03
4.980000000000000000e+02,7.999584100000000156e-03
4.990000000000000000e+02,7.999576600000000634e-03
5.000000000000000000e+02,7.999569200000000713e-03
5.010000000000000000e+02,7.999560799999999583e-03
5.020000000000000000e+02,7.999552400000000188e-03
5.030000000000000000e+02,7.999544000000000793e-03
5.040000000000000000e+02,7.999535699999999264e-03
5.050000000000000000e+02,7.999527299999999869e-03
5.060000000000000000e+02,7.999518900000000474e-03
5.070000000000000000e+02,7.999509599999999471e-03
5.080000000000000000e+02,7.999501200000000076e-03
5.090000000000000000e+02,7.999491900000000807e-03
5.100000000000000000e+02,7.999482599999999805e-03
5.110000000000000000e+02,7.999473300000000536e-03
5.120000000000000000e+02,7.999463899999999933e-03
5.130000000000000000e+02,7.999453700000000791e-03
5.140000000000000000e+02,7.999443400000000315e-03
5.150000000000000000e+02,7.999434099999999312e-03
5.160000000000000000e+02,7.999423900000000170e-03
5.170000000000000000e+02,7.999413599999999694e-03
5.180000000000000000e+02,7.999402500000000679e-03
5.190000000000000000e+02,7.999392200000000203e-03
5.200000000000000000e+02,7.999381099999999453e-03
5.210000000000000000e+02,7.999370800000000711e-03
5.220000000000000000e+02,7.999359600000000362e-03
5.230000000000000000e+02,7.999347500000000138e-03
5.240000000000000000e+02,7.999336299999999789e-03
5.250000000000000000e+02,7.999325200000000774e-03
5.260000000000000000e+02,7.999313100000000551e-03
5.270000000000000000e+02,7.999301000000000328e-03
5.280000000000000000e+02,7.999288800000000504e-03
5.290000000000000000e+02,7.999275800000000408e-03
5.300000000000000000e+02,7.999263700000000185e-03
5.310000000000000000e+02,7.999250700000000089e-03
5.320000000000000000e+02,7.999237600000000392e-03
5.330000000000000000e+02,7.999224600000000296e-03
5.340000000000000000e+02,7.999211500000000599e-03
5.350000000000000000e+02,7.999197600000000630e-03
5.360000000000000000e+02,7.999183599999999325e-03
5.370000000000000000e+02,7.999169599999999755e-03
5.380000000000000000e+02,7.999155699999999786e-03
5.390000000000000000e+02,7.999141700000000216e-03
5.400000000000000000e+02,7.999126800000000773e-03
5.410000000000000000e+02,7.999111899999999595e-03
5.420000000000000000e+02,7.999097000000000152e-03
5.430000000000000000e+02,7.999082100000000708e-03
5.440000000000000000e+02,7.999066299999999657e-03
5.450000000000000000e+02,7.999050400000000741e-03
5.460000000000000000e+02,7.999034599999999690e-03
5.470000000000000000e+02,7.999018800000000373e-03
5.480000000000000000e+02,7.999001999999999848e-03
5.490000000000000000e+02,7.998985199999999324e-03
5.500000000000000000e+02,7.998968500000000134e-03
5.510000000000000000e+02,7.998951699999999609e-03
5.520000000000000000e+02,7.998933999999999211e-03
5.530000000000000000e+02,7.998916300000000548e-03
5.540000000000000000e+02,7.998898600000000150e-03
5.550000000000000000e+02,7.998880899999999752e-03
5.560000000000000000e+02,7.998862299999999481e-03
5.570000000000000000e+02,7.998843699999999210e-03
5.580000000000000000e+02,7.998825100000000674e-03
5.590000000000000000e+02,7.998805499999999194e-03
5.600000000000000000e+02,7.998785899999999449e-03
5.610000000000000000e+02,7.998766399999999305e-03
5.620000000000000000e+02,7.998746799999999560e-03
5.630000000000000000e+02,7.998726299999999942e-03
5.640000000000000000e+02,7.998705800000000324e-03
5.650000000000000000e+02,7.998685400000000306e-03
5.660000000000000000e+02,7.998663899999999480e-03
5.670000000000000000e+02,7.998642499999999989e-03
5.680000000000000000e+02,7.998621100000000497e-03
5.690000000000000000e+02,7.998599699999999271e-03
5.700000000000000000e+02,7.998577300000000306e-03
5.710000000000000000e+02,7.998554999999999207e-03
5.720000000000000000e+02,7.998531700000000369e-03
5.730000000000000000e+02,7.998508399999999796e-03
5.740000000000000000e+02,7.998485099999999223e-03
5.750000000000000000e+02,7.998460900000000512e-03
5.760000000000000000e+02,7.998437599999999939e-03
5.770000000000000000e+02,7.998412499999999620e-03
5.780000000000000000e+02,7.998388299999999174e-03
5.790000000000000000e+02,7.998363099999999254e-03
5.800000000000000000e+02,7.998338000000000669e-03
5.810000000000000000e+02,7.998311899999999142e-03
5.820000000000000000e+02,7.998285799999999349e-03
5.830000000000000000e+02,7.998259699999999556e-03
5.840000000000000000e+02,7.998232699999999890e-03
5.850000000000000000e+02,7.998205700000000223e-03
5.860000000000000000e+02,7.998177800000000684e-03
5.870000000000000000e+02,7.998150799999999283e-03
5.880000000000000000e+02,7.998121900000000270e-03
5.890000000000000000e+02,7.998094000000000731e-03
5.900000000000000000e+02,7.998065099999999983e-03
5.910000000000000000e+02,7.998035299999999362e-03
5.920000000000000000e+02,7.998005500000000476e-03
5.930000000000000000e+02,7.997975699999999855e-03
5.940000000000000000e+02,7.997945899999999234e-03
5.950000000000000000e+02,7.997914199999999266e-03
5.960000000000000000e+02,7.997883500000000506e-03
5.970000000000000000e+02,7.997851800000000538e-03
5.980000000000000000e+02,7.997820200000000171e-03
5.990000000000000000e+02,7.997787600000000330e-03