# Time [s], Temperature [C]
1.000000000000000000e+00,2.500000000000000000e+01
2.000000000000000000e+00,2.500000000000000000e+01
3.000000000000000000e+00,2.500000000000000000e+01
4.000000000000000000e+00,2.500000000000000000e+01
5.000000000000000000e+00,2.500000800000000112e+01
6.000000000000000000e+00,2.500003600000000148e+01
7.000000000000000000e+00,2.500014900000000040e+01
8.000000000000000000e+00,2.500050900000000098e+01
9.000000000000000000e+00,2.500148599999999988e+01
1.000000000000000000e+01,2.500377800000000050e+01
1.100000000000000000e+01,2.500855800000000073e+01
1.200000000000000000e+01,2.501757599999999826e+01
1.300000000000000000e+01,2.503319899999999976e+01
1.400000000000000000e+01,2.505838999999999928e+01
1.500000000000000000e+01,2.509661699999999840e+01
1.600000000000000000e+01,2.515173300000000012e+01
1.700000000000000000e+01,2.522783300000000040e+01
1.800000000000000000e+01,2.532910299999999992e+01
1.900000000000000000e+01,2.545971099999999865e+01
2.000000000000000000e+01,2.562366700000000108e+01
2.100000000000000000e+01,2.582478300000000004e+01
2.200000000000000000e+01,2.606655299999999897e+01
2.300000000000000000e+01,2.635216899999999995e+01
2.400000000000000000e+01,2.668445200000000028e+01
2.500000000000000000e+01,2.706584499999999949e+01
2.600000000000000000e+01,2.749843600000000166e+01
2.700000000000000000e+01,2.798393799999999842e+01
2.800000000000000000e+01,2.852372700000000094e+01
2.900000000000000000e+01,2.911887000000000114e+01
3.000000000000000000e+01,2.977006899999999945e+01
3.100000000000000000e+01,3.047780200000000050e+01
3.200000000000000000e+01,3.124224900000000105e+01
3.300000000000000000e+01,3.206334700000000026e+01
3.400000000000000000e+01,3.294083799999999940e+01
3.500000000000000000e+01,3.387425600000000259e+01
3.600000000000000000e+01,3.486289200000000221e+01
3.700000000000000000e+01,3.590597499999999798e+01
3.800000000000000000e+01,3.700244500000000158e+01
3.900000000000000000e+01,3.815119899999999831e+01
4.000000000000000000e+01,3.935097499999999826e+01
4.100000000000000000e+01,4.060039100000000190e+01
4.200000000000000000e+01,4.189799099999999754e+01
4.300000000000000000e+01,4.324215300000000184e+01
4.400000000000000000e+01,4.463126400000000160e+01
4.500000000000000000e+01,4.606364399999999648e+01
4.600000000000000000e+01,4.753756299999999868e+01
4.700000000000000000e+01,4.905122800000000183e+01
4.800000000000000000e+01,5.060282099999999872e+01
4.900000000000000000e+01,5.219063599999999781e+01
5.000000000000000000e+01,5.381287799999999777e+01
5.100000000000000000e+01,5.546783099999999678e+01
5.200000000000000000e+01,5.715367499999999978e+01
5.300000000000000000e+01,5.886876699999999829e+01
5.400000000000000000e+01,6.061144300000000129e+01
5.500000000000000000e+01,6.238014600000000343e+01
5.600000000000000000e+01,6.417324100000000442e+01
5.700000000000000000e+01,6.598929599999999596e+01
5.800000000000000000e+01,6.782681300000000135e+01
5.900000000000000000e+01,6.968447100000000205e+01
6.000000000000000000e+01,7.156098199999999565e+01
6.100000000000000000e+01,7.345501699999999801e+01
6.200000000000000000e+01,7.536531100000000549e+01
6.300000000000000000e+01,7.729081700000000410e+01
6.400000000000000000e+01,7.923036199999999951e+01
6.500000000000000000e+01,8.118289199999999539e+01
6.600000000000000000e+01,8.314744600000000219e+01
6.700000000000000000e+01,8.512305499999999370e+01
6.800000000000000000e+01,8.710883300000000418e+01
6.900000000000000000e+01,8.910391199999999401e+01
7.000000000000000000e+01,9.110747499999999377e+01
7.100000000000000000e+01,9.311877400000000193e+01
7.200000000000000000e+01,9.513705400000000623e+01
7.300000000000000000e+01,9.716159100000000137e+01
7.400000000000000000e+01,9.919173399999999674e+01
7.500000000000000000e+01,1.012268799999999942e+02
7.600000000000000000e+01,1.032664199999999965e+02
7.700000000000000000e+01,1.053097800000000035e+02
7.800000000000000000e+01,1.073564499999999953e+02
7.900000000000000000e+01,1.094067399999999992e+02
8.000000000000000000e+01,1.114589900000000000e+02
8.100000000000000000e+01,1.135130000000000052e+02
8.200000000000000000e+01,1.155683999999999969e+02
8.300000000000000000e+01,1.176247699999999980e+02
8.400000000000000000e+01,1.196817900000000066e+02
8.500000000000000000e+01,1.217391999999999967e+02
8.600000000000000000e+01,1.237967500000000030e+02
8.700000000000000000e+01,1.258543200000000013e+02
8.800000000000000000e+01,1.279118100000000027e+02
8.900000000000000000e+01,1.299690099999999973e+02
9.000000000000000000e+01,1.320257900000000006e+02
9.100000000000000000e+01,1.340819700000000125e+02
9.200000000000000000e+01,1.361373299999999915e+02
9.300000000000000000e+01,1.381916400000000067e+02
9.400000000000000000e+01,1.402446400000000040e+02
9.500000000000000000e+01,1.422961099999999988e+02
9.600000000000000000e+01,1.443457300000000032e+02
9.700000000000000000e+01,1.463933100000000138e+02
9.800000000000000000e+01,1.484385499999999922e+02
9.900000000000000000e+01,1.504812799999999982e+02
1.000000000000000000e+02,1.525212400000000059e+02
1.010000000000000000e+02,1.545582400000000121e+02
1.020000000000000000e+02,1.565920399999999972e+02
1.030000000000000000e+02,1.586224499999999864e+02
1.040000000000000000e+02,1.606492499999999950e+02
1.050000000000000000e+02,1.626722699999999975e+02
1.060000000000000000e+02,1.646913900000000126e+02
1.070000000000000000e+02,1.667063300000000083e+02
1.080000000000000000e+02,1.687169499999999971e+02
1.090000000000000000e+02,1.707230700000000070e+02
1.100000000000000000e+02,1.727245299999999872e+02
1.110000000000000000e+02,1.747211299999999881e+02
1.120000000000000000e+02,1.767127499999999998e+02
1.130000000000000000e+02,1.786992500000000064e+02
1.140000000000000000e+02,1.806804199999999980e+02
1.150000000000000000e+02,1.826562000000000126e+02
1.160000000000000000e+02,1.846263999999999896e+02
1.170000000000000000e+02,1.865908699999999953e+02
1.180000000000000000e+02,1.885494099999999946e+02
1.190000000000000000e+02,1.905019100000000094e+02
1.200000000000000000e+02,1.924482299999999952e+02
1.210000000000000000e+02,1.943907199999999875e+02
1.220000000000000000e+02,1.963253200000000049e+02
1.230000000000000000e+02,1.982529299999999921e+02
1.240000000000000000e+02,2.001737200000000030e+02
1.250000000000000000e+02,2.020877499999999998e+02
1.260000000000000000e+02,2.039950699999999983e+02
1.270000000000000000e+02,2.058956300000000113e+02
1.280000000000000000e+02,2.077893699999999910e+02
1.290000000000000000e+02,2.096762999999999977e+02
1.300000000000000000e+02,2.115562400000000025e+02
1.310000000000000000e+02,2.134289200000000051e+02
1.320000000000000000e+02,2.152941899999999862e+02
1.330000000000000000e+02,2.171517900000000054e+02
1.340000000000000000e+02,2.190014199999999960e+02
1.350000000000000000e+02,2.208428999999999860e+02
1.360000000000000000e+02,2.226758900000000096e+02
1.370000000000000000e+02,2.245002299999999877e+02
1.380000000000000000e+02,2.263156899999999894e+02
1.390000000000000000e+02,2.281219299999999919e+02
1.400000000000000000e+02,2.299188100000000077e+02
1.410000000000000000e+02,2.317059800000000109e+02
1.420000000000000000e+02,2.334832800000000077e+02
1.430000000000000000e+02,2.352504700000000071e+02
1.440000000000000000e+02,2.370072499999999991e+02
1.450000000000000000e+02,2.387533999999999992e+02
1.460000000000000000e+02,2.404885400000000004e+02
1.470000000000000000e+02,2.422124599999999930e+02
1.480000000000000000e+02,2.439249299999999891e+02
1.490000000000000000e+02,2.456255199999999945e+02
1.500000000000000000e+02,2.473139299999999992e+02
1.510000000000000000e+02,2.489898499999999899e+02
1.520000000000000000e+02,2.506529400000000010e+02
1.530000000000000000e+02,2.523028400000000033e+02
1.540000000000000000e+02,2.539391300000000058e+02
1.550000000000000000e+02,2.555614500000000078e+02
1.560000000000000000e+02,2.571693999999999960e+02
1.570000000000000000e+02,2.587625400000000013e+02
1.580000000000000000e+02,2.603404199999999946e+02
1.590000000000000000e+02,2.619033200000000079e+02
1.600000000000000000e+02,2.634501000000000204e+02
1.610000000000000000e+02,2.649808699999999817e+02
1.620000000000000000e+02,2.664954500000000053e+02
1.630000000000000000e+02,2.679937100000000214e+02
1.640000000000000000e+02,2.694751899999999978e+02
1.650000000000000000e+02,2.709390599999999836e+02
1.660000000000000000e+02,2.723846399999999903e+02
1.670000000000000000e+02,2.738109699999999975e+02
1.680000000000000000e+02,2.752172199999999975e+02
1.690000000000000000e+02,2.766026299999999765e+02
1.700000000000000000e+02,2.779664300000000026e+02
1.710000000000000000e+02,2.793079200000000242e+02
1.720000000000000000e+02,2.806265000000000214e+02
1.730000000000000000e+02,2.819214799999999741e+02
1.740000000000000000e+02,2.831924399999999764e+02
1.750000000000000000e+02,2.844388400000000274e+02
1.760000000000000000e+02,2.856601600000000190e+02
1.770000000000000000e+02,2.868560499999999820e+02
1.780000000000000000e+02,2.880260900000000106e+02
1.790000000000000000e+02,2.891699499999999716e+02
1.800000000000000000e+02,2.902873500000000035e+02
1.810000000000000000e+02,2.913781700000000114e+02
1.820000000000000000e+02,2.924421399999999949e+02
1.830000000000000000e+02,2.934793099999999981e+02
1.840000000000000000e+02,2.944895900000000211e+02
1.850000000000000000e+02,2.954729899999999816e+02
1.860000000000000000e+02,2.964297799999999938e+02
1.870000000000000000e+02,2.973600799999999822e+02
1.880000000000000000e+02,2.982642200000000230e+02
1.890000000000000000e+02,2.991425500000000284e+02
1.900000000000000000e+02,2.999955699999999865e+02
1.910000000000000000e+02,3.008377399999999966e+02
1.920000000000000000e+02,3.016518899999999803e+02
1.930000000000000000e+02,3.024433300000000031e+02
1.940000000000000000e+02,3.032132899999999722e+02
1.950000000000000000e+02,3.039615800000000263e+02
1.960000000000000000e+02,3.046881399999999758e+02
1.970000000000000000e+02,3.053933400000000233e+02
1.980000000000000000e+02,3.060778500000000122e+02
1.990000000000000000e+02,3.067426100000000133e+02
2.000000000000000000e+02,3.073885500000000093e+02
2.010000000000000000e+02,3.080166600000000017e+02
2.020000000000000000e+02,3.086281700000000114e+02
2.030000000000000000e+02,3.092240899999999897e+02
2.040000000000000000e+02,3.098055699999999888e+02
2.050000000000000000e+02,3.103736299999999915e+02
2.060000000000000000e+02,3.109293799999999806e+02
2.070000000000000000e+02,3.114738500000000272e+02
2.080000000000000000e+02,3.120080899999999815e+02
2.090000000000000000e+02,3.125329899999999839e+02
2.100000000000000000e+02,3.130495900000000233e+02
2.110000000000000000e+02,3.135588399999999751e+02
2.120000000000000000e+02,3.140615500000000111e+02
2.130000000000000000e+02,3.145585899999999810e+02
2.140000000000000000e+02,3.150508699999999749e+02
2.150000000000000000e+02,3.155389999999999873e+02
2.160000000000000000e+02,3.160237999999999943e+02
2.170000000000000000e+02,3.165059800000000223e+02
2.180000000000000000e+02,3.170555100000000266e+02
2.190000000000000000e+02,3.175710799999999949e+02
2.200000000000000000e+02,3.180750100000000202e+02
2.210000000000000000e+02,3.185726599999999848e+02
2.220000000000000000e+02,3.190656099999999924e+02
2.230000000000000000e+02,3.195558800000000019e+02
2.240000000000000000e+02,3.200448600000000283e+02
2.250000000000000000e+02,3.205337200000000166e+02
2.260000000000000000e+02,3.210233799999999746e+02
2.270000000000000000e+02,3.215147999999999797e+02
2.280000000000000000e+02,3.220084499999999821e+02
2.290000000000000000e+02,3.225049099999999953e+02
2.300000000000000000e+02,3.230047299999999950e+02
2.310000000000000000e+02,3.235084499999999821e+02
2.320000000000000000e+02,3.240162700000000200e+02
2.330000000000000000e+02,3.245286300000000210e+02
2.340000000000000000e+02,3.250459299999999985e+02
2.350000000000000000e+02,3.255684499999999844e+02
2.360000000000000000e+02,3.260963699999999790e+02
2.370000000000000000e+02,3.266302200000000084e+02
2.380000000000000000e+02,3.271702000000000226e+02
2.390000000000000000e+02,3.277166399999999840e+02
2.400000000000000000e+02,3.282696799999999939e+02
2.410000000000000000e+02,3.288297099999999773e+02
2.420000000000000000e+02,3.293970899999999915e+02
2.430000000000000000e+02,3.299720800000000054e+02
2.440000000000000000e+02,3.305549899999999752e+02
2.450000000000000000e+02,3.311458999999999833e+02
2.460000000000000000e+02,3.317453899999999862e+02
2.470000000000000000e+02,3.325567599999999970e+02
2.480000000000000000e+02,3.332434700000000021e+02
2.490000000000000000e+02,3.338934899999999857e+02
2.500000000000000000e+02,3.345421400000000176e+02
2.510000000000000000e+02,3.351951000000000249e+02
2.520000000000000000e+02,3.358560800000000199e+02
2.530000000000000000e+02,3.365267299999999864e+02
2.540000000000000000e+02,3.372083700000000022e+02
2.550000000000000000e+02,3.379018599999999992e+02
2.560000000000000000e+02,3.386077300000000037e+02
2.570000000000000000e+02,3.393265999999999849e+02
2.580000000000000000e+02,3.400586900000000128e+02
2.590000000000000000e+02,3.408051500000000260e+02
2.600000000000000000e+02,3.415663099999999872e+02
2.610000000000000000e+02,3.423424099999999726e+02
2.620000000000000000e+02,3.431342500000000086e+02
2.630000000000000000e+02,3.439427200000000084e+02
2.640000000000000000e+02,3.447682500000000232e+02
2.650000000000000000e+02,3.456116599999999721e+02
2.660000000000000000e+02,3.464734500000000139e+02
2.670000000000000000e+02,3.473547399999999925e+02
2.680000000000000000e+02,3.482566499999999792e+02
2.690000000000000000e+02,3.491796600000000126e+02
2.700000000000000000e+02,3.501246899999999869e+02
2.710000000000000000e+02,3.510931100000000242e+02
2.720000000000000000e+02,3.520855999999999995e+02
2.730000000000000000e+02,3.531037900000000036e+02
2.740000000000000000e+02,3.541486499999999751e+02
2.750000000000000000e+02,3.552209500000000162e+02
2.760000000000000000e+02,3.563234299999999735e+02
2.770000000000000000e+02,3.574569099999999935e+02
2.780000000000000000e+02,3.586231099999999969e+02
2.790000000000000000e+02,3.598235199999999736e+02
2.800000000000000000e+02,3.615835900000000152e+02
2.810000000000000000e+02,3.629480599999999981e+02
2.820000000000000000e+02,3.642767900000000054e+02
2.830000000000000000e+02,3.656468199999999911e+02
2.840000000000000000e+02,3.670568200000000161e+02
2.850000000000000000e+02,3.685160500000000070e+02
2.860000000000000000e+02,3.700245699999999829e+02
2.870000000000000000e+02,3.715874000000000024e+02
2.880000000000000000e+02,3.732071799999999939e+02
2.890000000000000000e+02,3.748871199999999817e+02
2.900000000000000000e+02,3.766301000000000272e+02
2.910000000000000000e+02,3.784405499999999734e+02
2.920000000000000000e+02,3.803217200000000275e+02
2.930000000000000000e+02,3.822777100000000132e+02
2.940000000000000000e+02,3.843113099999999918e+02
2.950000000000000000e+02,3.864287400000000048e+02
2.960000000000000000e+02,3.886349500000000035e+02
2.970000000000000000e+02,3.909319199999999910e+02
2.980000000000000000e+02,3.933253799999999956e+02
2.990000000000000000e+02,3.958192399999999793e+02
3.000000000000000000e+02,3.984193700000000149e+02
3.010000000000000000e+02,4.011255199999999945e+02
3.020000000000000000e+02,4.039427800000000275e+02
3.030000000000000000e+02,4.068752099999999814e+02
3.040000000000000000e+02,4.099227599999999825e+02
3.050000000000000000e+02,4.130862700000000132e+02
3.060000000000000000e+02,4.163660899999999856e+02
3.070000000000000000e+02,4.197592799999999897e+02
3.080000000000000000e+02,4.232633700000000090e+02
3.090000000000000000e+02,4.268752700000000004e+02
3.100000000000000000e+02,4.305907300000000077e+02
3.110000000000000000e+02,4.344022199999999998e+02
3.120000000000000000e+02,4.383013000000000261e+02
3.130000000000000000e+02,4.422771000000000186e+02
3.140000000000000000e+02,4.463146699999999782e+02
3.150000000000000000e+02,4.503923300000000154e+02
3.160000000000000000e+02,4.544867899999999850e+02
3.170000000000000000e+02,4.585672299999999950e+02
3.180000000000000000e+02,4.626035499999999843e+02
3.190000000000000000e+02,4.665671699999999760e+02
3.200000000000000000e+02,4.704364600000000110e+02
3.210000000000000000e+02,4.741951000000000249e+02
3.220000000000000000e+02,4.778351099999999860e+02
3.230000000000000000e+02,4.813554100000000062e+02
3.240000000000000000e+02,4.847590900000000147e+02
3.250000000000000000e+02,4.880523400000000152e+02
3.260000000000000000e+02,4.912469500000000266e+02
3.270000000000000000e+02,4.943555299999999875e+02
3.280000000000000000e+02,4.973867200000000253e+02
3.290000000000000000e+02,5.003473799999999869e+02
3.300000000000000000e+02,5.032422500000000127e+02
3.310000000000000000e+02,5.060769000000000233e+02
3.320000000000000000e+02,5.088545199999999795e+02
3.330000000000000000e+02,5.115783400000000256e+02
3.340000000000000000e+02,5.142514599999999518e+02
3.350000000000000000e+02,5.168763400000000274e+02
3.360000000000000000e+02,5.194555100000000039e+02
3.370000000000000000e+02,5.219907200000000103e+02
3.380000000000000000e+02,5.244836400000000367e+02
3.390000000000000000e+02,5.269364600000000110e+02
3.400000000000000000e+02,5.293499799999999595e+02
3.410000000000000000e+02,5.317254599999999982e+02
3.420000000000000000e+02,5.340644499999999653e+02
3.430000000000000000e+02,5.363678599999999506e+02
3.440000000000000000e+02,5.386366000000000440e+02
3.450000000000000000e+02,5.408712799999999561e+02
3.460000000000000000e+02,5.430734300000000303e+02
3.470000000000000000e+02,5.452431599999999889e+02
3.480000000000000000e+02,5.473818400000000111e+02
3.490000000000000000e+02,5.494891999999999825e+02
3.500000000000000000e+02,5.515663500000000568e+02
3.510000000000000000e+02,5.536139500000000453e+02
3.520000000000000000e+02,5.556326900000000251e+02
3.530000000000000000e+02,5.576226199999999835e+02
3.540000000000000000e+02,5.595844700000000103e+02
3.550000000000000000e+02,5.615188000000000557e+02
3.560000000000000000e+02,5.634260900000000447e+02
3.570000000000000000e+02,5.653065800000000536e+02
3.580000000000000000e+02,5.671605799999999817e+02
3.590000000000000000e+02,5.689888899999999694e+02
3.600000000000000000e+02,5.707916900000000169e+02
3.610000000000000000e+02,5.725692099999999982e+02
3.620000000000000000e+02,5.743221399999999903e+02
3.630000000000000000e+02,5.760506000000000313e+02
3.640000000000000000e+02,5.777548799999999574e+02
3.650000000000000000e+02,5.794356699999999591e+02
3.660000000000000000e+02,5.810931399999999485e+02
3.670000000000000000e+02,5.827272900000000391e+02
3.680000000000000000e+02,5.843388700000000426e+02
3.690000000000000000e+02,5.859279199999999719e+02
3.700000000000000000e+02,5.874949299999999539e+02
3.710000000000000000e+02,5.890401000000000522e+02
3.720000000000000000e+02,5.905635999999999513e+02
3.730000000000000000e+02,5.920662200000000439e+02
3.740000000000000000e+02,5.935478500000000395e+02
3.750000000000000000e+02,5.950087300000000141e+02
3.760000000000000000e+02,5.964491600000000062e+02
3.770000000000000000e+02,5.978696899999999914e+02
3.780000000000000000e+02,5.992702600000000075e+02
3.790000000000000000e+02,6.006514899999999670e+02
3.800000000000000000e+02,6.020133100000000468e+02
3.810000000000000000e+02,6.033563199999999824e+02
3.820000000000000000e+02,6.046802400000000262e+02
3.830000000000000000e+02,6.059856600000000526e+02
3.840000000000000000e+02,6.072730099999999993e+02
3.850000000000000000e+02,6.085423600000000306e+02
3.860000000000000000e+02,6.097936999999999443e+02
3.870000000000000000e+02,6.110276499999999942e+02
3.880000000000000000e+02,6.122441400000000158e+02
3.890000000000000000e+02,6.134436600000000226e+02
3.900000000000000000e+02,6.146262799999999515e+02
3.910000000000000000e+02,6.157922399999999925e+02
3.920000000000000000e+02,6.169420199999999568e+02
3.930000000000000000e+02,6.180756199999999581e+02
3.940000000000000000e+02,6.191931799999999839e+02
3.950000000000000000e+02,6.202951699999999846e+02
3.960000000000000000e+02,6.213815299999999979e+02
3.970000000000000000e+02,6.224526399999999740e+02
3.980000000000000000e+02,6.235085400000000391e+02
3.990000000000000000e+02,6.245496799999999666e+02
4.000000000000000000e+02,6.255761700000000474e+02
4.010000000000000000e+02,6.265880700000000161e+02
4.020000000000000000e+02,6.275857499999999618e+02
4.030000000000000000e+02,6.285692099999999982e+02
4.040000000000000000e+02,6.295389400000000251e+02
4.050000000000000000e+02,6.304948699999999917e+02
4.060000000000000000e+02,6.314372600000000375e+02
4.070000000000000000e+02,6.323663900000000240e+02
4.080000000000000000e+02,6.332822899999999890e+02
4.090000000000000000e+02,6.341853599999999460e+02
4.100000000000000000e+02,6.350756199999999581e+02
4.110000000000000000e+02,6.359532500000000255e+02
4.120000000000000000e+02,6.368183000000000220e+02
4.130000000000000000e+02,6.376711999999999989e+02
4.140000000000000000e+02,6.385119600000000446e+02
4.150000000000000000e+02,6.393408200000000079e+02
4.160000000000000000e+02,6.401579600000000028e+02
4.170000000000000000e+02,6.409634399999999914e+02
4.180000000000000000e+02,6.417575699999999870e+02
4.190000000000000000e+02,6.425403400000000147e+02
4.200000000000000000e+02,6.433119500000000244e+02
4.210000000000000000e+02,6.440726300000000037e+02
4.220000000000000000e+02,6.448223900000000413e+02
4.230000000000000000e+02,6.455615199999999732e+02
4.240000000000000000e+02,6.462900399999999763e+02
4.250000000000000000e+02,6.470081800000000385e+02
4.260000000000000000e+02,6.477161300000000210e+02
4.270000000000000000e+02,6.484140599999999495e+02
4.280000000000000000e+02,6.491019900000000007e+02
4.290000000000000000e+02,6.497800300000000107e+02
4.300000000000000000e+02,6.504484899999999925e+02
4.310000000000000000e+02,6.511073000000000093e+02
4.320000000000000000e+02,6.517567699999999604e+02
4.330000000000000000e+02,6.523970299999999725e+02
4.340000000000000000e+02,6.530280800000000454e+02
4.350000000000000000e+02,6.536500200000000405e+02
4.360000000000000000e+02,6.542631800000000339e+02
4.370000000000000000e+02,6.548674300000000130e+02
4.380000000000000000e+02,6.554632000000000289e+02
4.390000000000000000e+02,6.560502900000000182e+02
4.400000000000000000e+02,6.566290900000000192e+02
4.410000000000000000e+02,6.571995200000000068e+02
4.420000000000000000e+02,6.577618999999999687e+02
4.430000000000000000e+02,6.583160400000000436e+02
4.440000000000000000e+02,6.588623000000000047e+02
4.450000000000000000e+02,6.594008199999999533e+02
4.460000000000000000e+02,6.599315199999999777e+02
4.470000000000000000e+02,6.604546500000000151e+02
4.480000000000000000e+02,6.609703399999999647e+02
4.490000000000000000e+02,6.614785200000000032e+02
4.500000000000000000e+02,6.619794299999999794e+02
4.510000000000000000e+02,6.624731399999999439e+02
4.520000000000000000e+02,6.629598399999999856e+02
4.530000000000000000e+02,6.634394499999999653e+02
4.540000000000000000e+02,6.639121699999999464e+02
4.550000000000000000e+02,6.643781099999999924e+02
4.560000000000000000e+02,6.648373400000000402e+02
4.570000000000000000e+02,6.652900399999999763e+02
4.580000000000000000e+02,6.657361499999999523e+02
4.590000000000000000e+02,6.661758399999999938e+02
4.600000000000000000e+02,6.666092499999999745e+02
4.610000000000000000e+02,6.670363200000000461e+02
4.620000000000000000e+02,6.674573400000000447e+02
4.630000000000000000e+02,6.678722500000000082e+02
4.640000000000000000e+02,6.682811900000000378e+02
4.650000000000000000e+02,6.686842000000000326e+02
4.660000000000000000e+02,6.690814800000000560e+02
4.670000000000000000e+02,6.694730200000000195e+02
4.680000000000000000e+02,6.698588899999999740e+02
4.690000000000000000e+02,6.702391400000000203e+02
4.700000000000000000e+02,6.706139500000000453e+02
4.710000000000000000e+02,6.709833399999999983e+02
4.720000000000000000e+02,6.713474700000000439e+02
4.730000000000000000e+02,6.717063600000000179e+02
4.740000000000000000e+02,6.720599999999999454e+02
4.750000000000000000e+02,6.724085700000000543e+02
4.760000000000000000e+02,6.727520799999999781e+02
4.770000000000000000e+02,6.730906400000000076e+02
4.780000000000000000e+02,6.734242600000000039e+02
4.790000000000000000e+02,6.737531099999999924e+02
4.800000000000000000e+02,6.740772100000000364e+02
4.810000000000000000e+02,6.743966100000000097e+02
4.820000000000000000e+02,6.747114299999999503e+02
4.830000000000000000e+02,6.750216699999999719e+02
4.840000000000000000e+02,6.753274499999999989e+02
4.850000000000000000e+02,6.756287800000000061e+02
4.860000000000000000e+02,6.759257199999999557e+02
4.870000000000000000e+02,6.762184399999999869e+02
4.880000000000000000e+02,6.765068999999999733e+02
4.890000000000000000e+02,6.767912000000000035e+02
4.900000000000000000e+02,6.770713500000000522e+02
4.910000000000000000e+02,6.773474700000000439e+02
4.920000000000000000e+02,6.776195699999999533e+02
4.930000000000000000e+02,6.778876999999999953e+02
4.940000000000000000e+02,6.781520400000000564e+02
4.950000000000000000e+02,6.784124799999999595e+02
4.960000000000000000e+02,6.786691299999999956e+02
4.970000000000000000e+02,6.789221199999999499e+02
4.980000000000000000e+02,6.791714500000000498e+02
4.990000000000000000e+02,6.794171099999999797e+02
5.000000000000000000e+02,6.796592399999999543e+02
5.010000000000000000e+02,6.798978299999999990e+02
5.020000000000000000e+02,6.801330600000000004e+02
5.030000000000000000e+02,6.803647499999999582e+02
5.040000000000000000e+02,6.805931399999999485e+02
5.050000000000000000e+02,6.808182399999999461e+02
5.060000000000000000e+02,6.810400399999999763e+02
5.070000000000000000e+02,6.812586700000000519e+02
5.080000000000000000e+02,6.814740600000000086e+02
5.090000000000000000e+02,6.816863399999999729e+02
5.100000000000000000e+02,6.818955700000000206e+02
5.110000000000000000e+02,6.821018100000000004e+02
5.120000000000000000e+02,6.823049899999999752e+02
5.130000000000000000e+02,6.825052500000000464e+02
5.140000000000000000e+02,6.827025800000000118e+02
5.150000000000000000e+02,6.828970299999999725e+02
5.160000000000000000e+02,6.830886799999999539e+02
5.170000000000000000e+02,6.832775900000000320e+02
5.180000000000000000e+02,6.834636799999999539e+02
5.190000000000000000e+02,6.836470900000000483e+02
5.200000000000000000e+02,6.838278800000000501e+02
5.210000000000000000e+02,6.840059800000000223e+02
5.220000000000000000e+02,6.841815199999999777e+02
5.230000000000000000e+02,6.843545500000000175e+02
5.240000000000000000e+02,6.845250200000000405e+02
5.250000000000000000e+02,6.846929900000000089e+02
5.260000000000000000e+02,6.848585799999999608e+02
5.270000000000000000e+02,6.850217300000000478e+02
5.280000000000000000e+02,6.851825000000000045e+02
5.290000000000000000e+02,6.853409400000000460e+02
5.300000000000000000e+02,6.854970700000000079e+02
5.310000000000000000e+02,6.856509399999999914e+02
5.320000000000000000e+02,6.858026099999999587e+02
5.330000000000000000e+02,6.859520300000000361e+02
5.340000000000000000e+02,6.860992400000000089e+02
5.350000000000000000e+02,6.862443799999999783e+02
5.360000000000000000e+02,6.863873899999999821e+02
5.370000000000000000e+02,6.865283200000000079e+02
5.380000000000000000e+02,6.866671800000000303e+02
5.390000000000000000e+02,6.868040200000000368e+02
5.400000000000000000e+02,6.869388999999999896e+02
5.410000000000000000e+02,6.870717799999999897e+02
5.420000000000000000e+02,6.872027600000000120e+02
5.430000000000000000e+02,6.873318500000000313e+02
5.440000000000000000e+02,6.874589799999999968e+02
5.450000000000000000e+02,6.875843499999999722e+02
5.460000000000000000e+02,6.877078199999999697e+02
5.470000000000000000e+02,6.878295900000000529e+02
5.480000000000000000e+02,6.879495200000000068e+02
5.490000000000000000e+02,6.880676899999999705e+02
5.500000000000000000e+02,6.881841399999999567e+02
5.510000000000000000e+02,6.882989499999999907e+02
5.520000000000000000e+02,6.884120500000000220e+02
5.530000000000000000e+02,6.885235000000000127e+02
5.540000000000000000e+02,6.886332999999999629e+02
5.550000000000000000e+02,6.887415799999999990e+02
5.560000000000000000e+02,6.888482099999999946e+02
5.570000000000000000e+02,6.889533099999999877e+02
5.580000000000000000e+02,6.890568799999999783e+02
5.590000000000000000e+02,6.891589400000000296e+02
5.600000000000000000e+02,6.892595199999999522e+02
5.610000000000000000e+02,6.893586400000000367e+02
5.620000000000000000e+02,6.894563000000000557e+02
5.630000000000000000e+02,6.895525499999999965e+02
5.640000000000000000e+02,6.896473999999999478e+02
5.650000000000000000e+02,6.897408400000000483e+02
5.660000000000000000e+02,6.898329499999999825e+02
5.670000000000000000e+02,6.899237100000000282e+02
5.680000000000000000e+02,6.900131199999999581e+02
5.690000000000000000e+02,6.901012600000000248e+02
5.700000000000000000e+02,6.901881100000000515e+02
5.710000000000000000e+02,6.902736800000000130e+02
5.720000000000000000e+02,6.903580299999999852e+02
5.730000000000000000e+02,6.904411000000000058e+02
5.740000000000000000e+02,6.905230099999999993e+02
5.750000000000000000e+02,6.906037000000000035e+02
5.760000000000000000e+02,6.906832299999999805e+02
5.770000000000000000e+02,6.907616000000000440e+02
5.780000000000000000e+02,6.908388099999999667e+02
5.790000000000000000e+02,6.909149200000000519e+02
5.800000000000000000e+02,6.909899299999999585e+02
5.810000000000000000e+02,6.910637799999999515e+02
5.820000000000000000e+02,6.911366000000000440e+02
5.830000000000000000e+02,6.912083699999999453e+02
5.840000000000000000e+02,6.912790499999999838e+02
5.850000000000000000e+02,6.913486900000000333e+02
5.860000000000000000e+02,6.914173600000000306e+02
5.870000000000000000e+02,6.914850500000000011e+02
5.880000000000000000e+02,6.915516999999999825e+02
5.890000000000000000e+02,6.916174300000000130e+02
5.900000000000000000e+02,6.916821300000000292e+02
5.910000000000000000e+02,6.917459700000000566e+02
5.920000000000000000e+02,6.918088400000000320e+02
5.930000000000000000e+02,6.918707900000000564e+02
5.940000000000000000e+02,6.919318200000000161e+02
5.950000000000000000e+02,6.919919399999999996e+02
5.960000000000000000e+02,6.920512099999999691e+02
5.970000000000000000e+02,6.921096199999999499e+02
5.980000000000000000e+02,6.921671800000000303e+02
5.990000000000000000e+02,6.922238800000000083e+02