# Time [s], Temperature [C]
1.000000000000000000e+00,2.499998099999999823e+01
2.000000000000000000e+00,7.208689900000000250e+01
3.000000000000000000e+00,9.885924500000000137e+01
4.000000000000000000e+00,1.206164799999999957e+02
5.000000000000000000e+00,1.388146700000000067e+02
6.000000000000000000e+00,1.548656900000000007e+02
7.000000000000000000e+00,1.695048500000000047e+02
8.000000000000000000e+00,1.832055100000000039e+02
9.000000000000000000e+00,1.957272199999999884e+02
1.000000000000000000e+01,2.068043499999999995e+02
1.100000000000000000e+01,2.163559600000000103e+02
1.200000000000000000e+01,2.240787699999999916e+02
1.300000000000000000e+01,2.298725399999999865e+02
1.400000000000000000e+01,2.345286600000000021e+02
1.500000000000000000e+01,2.377915000000000134e+02
1.600000000000000000e+01,2.407638100000000065e+02
1.700000000000000000e+01,2.448415500000000122e+02
1.800000000000000000e+01,2.470576199999999858e+02
1.900000000000000000e+01,2.503188600000000008e+02
2.000000000000000000e+01,2.551157699999999977e+02
2.100000000000000000e+01,2.573983799999999746e+02
2.200000000000000000e+01,2.615456199999999853e+02
2.300000000000000000e+01,2.673122299999999996e+02
2.400000000000000000e+01,2.702282700000000091e+02
2.500000000000000000e+01,2.750664699999999812e+02
2.600000000000000000e+01,2.816955300000000193e+02
2.700000000000000000e+01,2.852484699999999975e+02
2.800000000000000000e+01,2.900164500000000203e+02
2.900000000000000000e+01,2.964818999999999960e+02
3.000000000000000000e+01,3.002237900000000081e+02
3.100000000000000000e+01,3.043218400000000088e+02
3.200000000000000000e+01,3.098125900000000001e+02
3.300000000000000000e+01,3.136924700000000144e+02
3.400000000000000000e+01,3.128005999999999744e+02
3.500000000000000000e+01,2.984007899999999722e+02
3.600000000000000000e+01,3.097716699999999719e+02
3.700000000000000000e+01,3.149742699999999900e+02
3.800000000000000000e+01,3.209664900000000216e+02
3.900000000000000000e+01,3.252074600000000260e+02
4.000000000000000000e+01,3.292699000000000069e+02
4.100000000000000000e+01,3.335480999999999767e+02
4.200000000000000000e+01,3.376283300000000054e+02
4.300000000000000000e+01,3.415335400000000163e+02
4.400000000000000000e+01,3.456937599999999975e+02
4.500000000000000000e+01,3.495646399999999971e+02
4.600000000000000000e+01,3.532902199999999766e+02
4.700000000000000000e+01,3.570259399999999914e+02
4.800000000000000000e+01,3.605444299999999771e+02
4.900000000000000000e+01,3.639292599999999993e+02
5.000000000000000000e+01,3.673428999999999860e+02
5.100000000000000000e+01,3.706463600000000156e+02
5.200000000000000000e+01,3.738998399999999833e+02
5.300000000000000000e+01,3.771904599999999732e+02
5.400000000000000000e+01,3.803956000000000017e+02
5.500000000000000000e+01,3.835316500000000133e+02
5.600000000000000000e+01,3.866383400000000279e+02
5.700000000000000000e+01,3.882615400000000250e+02
5.800000000000000000e+01,3.897572599999999738e+02
5.900000000000000000e+01,3.918366399999999885e+02
6.000000000000000000e+01,3.942792999999999779e+02
6.100000000000000000e+01,3.969008499999999913e+02
6.200000000000000000e+01,3.996318699999999922e+02
6.300000000000000000e+01,4.023854099999999789e+02
6.400000000000000000e+01,4.051325100000000248e+02
6.500000000000000000e+01,4.078763999999999896e+02
6.600000000000000000e+01,4.105666800000000194e+02
6.700000000000000000e+01,4.132081600000000208e+02
6.800000000000000000e+01,4.158143900000000031e+02
6.900000000000000000e+01,4.183678600000000074e+02
7.000000000000000000e+01,4.208700600000000236e+02
7.100000000000000000e+01,4.233432599999999866e+02
7.200000000000000000e+01,4.257799400000000105e+02
7.300000000000000000e+01,4.281868600000000242e+02
7.400000000000000000e+01,4.305740099999999870e+02
7.500000000000000000e+01,4.329236099999999965e+02
7.600000000000000000e+01,4.352420000000000186e+02
7.700000000000000000e+01,4.375339999999999918e+02
7.800000000000000000e+01,4.397807000000000244e+02
7.900000000000000000e+01,4.419941699999999969e+02
8.000000000000000000e+01,4.441842700000000264e+02
8.100000000000000000e+01,4.463349600000000237e+02
8.200000000000000000e+01,4.480170299999999770e+02
8.300000000000000000e+01,4.499073799999999892e+02
8.400000000000000000e+01,4.518313899999999990e+02
8.500000000000000000e+01,4.537022400000000175e+02
8.600000000000000000e+01,4.556023900000000140e+02
8.700000000000000000e+01,4.575222200000000043e+02
8.800000000000000000e+01,4.594523899999999799e+02
8.900000000000000000e+01,4.613811600000000226e+02
9.000000000000000000e+01,4.633051800000000071e+02
9.100000000000000000e+01,4.652118500000000267e+02
9.200000000000000000e+01,4.671134599999999750e+02
9.300000000000000000e+01,4.689880999999999744e+02
9.400000000000000000e+01,4.708510999999999740e+02
9.500000000000000000e+01,4.727021199999999794e+02
9.600000000000000000e+01,4.745334500000000162e+02
9.700000000000000000e+01,4.763455200000000218e+02
9.800000000000000000e+01,4.781456600000000208e+02
9.900000000000000000e+01,4.799201699999999846e+02
1.000000000000000000e+02,4.816790500000000179e+02
1.010000000000000000e+02,4.834162299999999846e+02
1.020000000000000000e+02,4.851361400000000117e+02
1.030000000000000000e+02,4.868361800000000130e+02
1.040000000000000000e+02,4.885153500000000122e+02
1.050000000000000000e+02,4.901858199999999783e+02
1.060000000000000000e+02,4.918353599999999801e+02
1.070000000000000000e+02,4.934676200000000108e+02
1.080000000000000000e+02,4.949999399999999810e+02
1.090000000000000000e+02,4.964891700000000014e+02
1.100000000000000000e+02,4.979900799999999776e+02
1.110000000000000000e+02,4.994729600000000005e+02
1.120000000000000000e+02,5.009428100000000086e+02
1.130000000000000000e+02,5.024048199999999724e+02
1.140000000000000000e+02,5.038652999999999906e+02
1.150000000000000000e+02,5.053269999999999982e+02
1.160000000000000000e+02,5.067786300000000210e+02
1.170000000000000000e+02,5.082310200000000009e+02
1.180000000000000000e+02,5.096836900000000128e+02
1.190000000000000000e+02,5.111271699999999782e+02
1.200000000000000000e+02,5.125639599999999518e+02
1.210000000000000000e+02,5.139962199999999939e+02
1.220000000000000000e+02,5.154168700000000172e+02
1.230000000000000000e+02,5.168308700000000044e+02
1.240000000000000000e+02,5.182304100000000062e+02
1.250000000000000000e+02,5.196239600000000110e+02
1.260000000000000000e+02,5.210016500000000406e+02
1.270000000000000000e+02,5.223715200000000323e+02
1.280000000000000000e+02,5.237273599999999760e+02
1.290000000000000000e+02,5.250762899999999718e+02
1.300000000000000000e+02,5.264099099999999680e+02
1.310000000000000000e+02,5.277367600000000039e+02
1.320000000000000000e+02,5.290203900000000203e+02
1.330000000000000000e+02,5.302706299999999828e+02
1.340000000000000000e+02,5.315242899999999509e+02
1.350000000000000000e+02,5.327611100000000306e+02
1.360000000000000000e+02,5.339893799999999828e+02
1.370000000000000000e+02,5.352027000000000498e+02
1.380000000000000000e+02,5.364105799999999817e+02
1.390000000000000000e+02,5.376079099999999471e+02
1.400000000000000000e+02,5.388049899999999752e+02
1.410000000000000000e+02,5.399991499999999860e+02
1.420000000000000000e+02,5.411848800000000210e+02
1.430000000000000000e+02,5.423695099999999911e+02
1.440000000000000000e+02,5.435447400000000471e+02
1.450000000000000000e+02,5.447172199999999975e+02
1.460000000000000000e+02,5.458860499999999547e+02
1.470000000000000000e+02,5.470441899999999578e+02
1.480000000000000000e+02,5.481977500000000418e+02
1.490000000000000000e+02,5.493455199999999650e+02
1.500000000000000000e+02,5.504896899999999960e+02
1.510000000000000000e+02,5.516190199999999777e+02
1.520000000000000000e+02,5.527448100000000295e+02
1.530000000000000000e+02,5.538629200000000310e+02
1.540000000000000000e+02,5.549721100000000433e+02
1.550000000000000000e+02,5.560787400000000389e+02
1.560000000000000000e+02,5.571775499999999965e+02
1.570000000000000000e+02,5.582546399999999949e+02
1.580000000000000000e+02,5.593155500000000302e+02
1.590000000000000000e+02,5.603650499999999965e+02
1.600000000000000000e+02,5.614013700000000426e+02
1.610000000000000000e+02,5.624292000000000371e+02
1.620000000000000000e+02,5.634500100000000202e+02
1.630000000000000000e+02,5.644596599999999853e+02
1.640000000000000000e+02,5.654719199999999546e+02
1.650000000000000000e+02,5.664722299999999677e+02
1.660000000000000000e+02,5.674688099999999622e+02
1.670000000000000000e+02,5.684568500000000313e+02
1.680000000000000000e+02,5.694434199999999464e+02
1.690000000000000000e+02,5.704217499999999745e+02
1.700000000000000000e+02,5.714034400000000460e+02
1.710000000000000000e+02,5.723732300000000350e+02
1.720000000000000000e+02,5.733400900000000320e+02
1.730000000000000000e+02,5.742976099999999633e+02
1.740000000000000000e+02,5.752553699999999708e+02
1.750000000000000000e+02,5.762048999999999523e+02
1.760000000000000000e+02,5.771466100000000097e+02
1.770000000000000000e+02,5.780892300000000432e+02
1.780000000000000000e+02,5.790018300000000409e+02
1.790000000000000000e+02,5.799040499999999838e+02
1.800000000000000000e+02,5.808220199999999522e+02
1.810000000000000000e+02,5.817280299999999897e+02
1.820000000000000000e+02,5.826284200000000055e+02
1.830000000000000000e+02,5.835214200000000346e+02
1.840000000000000000e+02,5.844108899999999949e+02
1.850000000000000000e+02,5.852935199999999440e+02
1.860000000000000000e+02,5.861713300000000118e+02
1.870000000000000000e+02,5.870432100000000446e+02
1.880000000000000000e+02,5.879136999999999489e+02
1.890000000000000000e+02,5.887761199999999917e+02
1.900000000000000000e+02,5.896387899999999718e+02
1.910000000000000000e+02,5.904940800000000536e+02
1.920000000000000000e+02,5.913510700000000497e+02
1.930000000000000000e+02,5.922014199999999846e+02
1.940000000000000000e+02,5.930537699999999859e+02
1.950000000000000000e+02,5.939007599999999911e+02
1.960000000000000000e+02,5.947476799999999457e+02
1.970000000000000000e+02,5.955936299999999619e+02
1.980000000000000000e+02,5.964348800000000210e+02
1.990000000000000000e+02,5.972750899999999774e+02
2.000000000000000000e+02,5.981137700000000450e+02
2.010000000000000000e+02,5.989541000000000395e+02
2.020000000000000000e+02,5.997951000000000477e+02
2.030000000000000000e+02,6.006321400000000494e+02
2.040000000000000000e+02,6.014709500000000162e+02
2.050000000000000000e+02,6.023079800000000432e+02
2.060000000000000000e+02,6.031503900000000158e+02
2.070000000000000000e+02,6.039973800000000210e+02
2.080000000000000000e+02,6.048423500000000104e+02
2.090000000000000000e+02,6.056905500000000302e+02
2.100000000000000000e+02,6.065410200000000032e+02
2.110000000000000000e+02,6.073960600000000341e+02
2.120000000000000000e+02,6.082530500000000302e+02
2.130000000000000000e+02,6.091185299999999643e+02
2.140000000000000000e+02,6.099898699999999963e+02
2.150000000000000000e+02,6.108718900000000076e+02
2.160000000000000000e+02,6.117630599999999959e+02
2.170000000000000000e+02,6.126687600000000202e+02
2.180000000000000000e+02,6.135863000000000511e+02
2.190000000000000000e+02,6.145183100000000422e+02
2.200000000000000000e+02,6.154661899999999832e+02
2.210000000000000000e+02,6.164307900000000018e+02
2.220000000000000000e+02,6.174108899999999949e+02
2.230000000000000000e+02,6.184139400000000251e+02
2.240000000000000000e+02,6.194384800000000268e+02
2.250000000000000000e+02,6.204845000000000255e+02
2.260000000000000000e+02,6.215497400000000425e+02
2.270000000000000000e+02,6.226376299999999446e+02
2.280000000000000000e+02,6.237479200000000219e+02
2.290000000000000000e+02,6.248811600000000226e+02
2.300000000000000000e+02,6.260374799999999595e+02
2.310000000000000000e+02,6.272131299999999783e+02
2.320000000000000000e+02,6.284129599999999982e+02
2.330000000000000000e+02,6.296312299999999595e+02
2.340000000000000000e+02,6.308709700000000566e+02
2.350000000000000000e+02,6.321267100000000028e+02
2.360000000000000000e+02,6.334044199999999591e+02
2.370000000000000000e+02,6.346964699999999766e+02
2.380000000000000000e+02,6.360042700000000195e+02
2.390000000000000000e+02,6.373276399999999740e+02
2.400000000000000000e+02,6.386635700000000497e+02
2.410000000000000000e+02,6.400108000000000175e+02
2.420000000000000000e+02,6.413674300000000130e+02
2.430000000000000000e+02,6.427364499999999907e+02
2.440000000000000000e+02,6.441108400000000529e+02
2.450000000000000000e+02,6.454962199999999939e+02
2.460000000000000000e+02,6.468852500000000418e+02
2.470000000000000000e+02,6.482822300000000268e+02
2.480000000000000000e+02,6.496843900000000076e+02
2.490000000000000000e+02,6.510868500000000267e+02
2.500000000000000000e+02,6.524927999999999884e+02
2.510000000000000000e+02,6.539035599999999704e+02
2.520000000000000000e+02,6.553123799999999619e+02
2.530000000000000000e+02,6.567237499999999955e+02
2.540000000000000000e+02,6.581330000000000382e+02
2.550000000000000000e+02,6.595429100000000062e+02
2.560000000000000000e+02,6.609486699999999928e+02
2.570000000000000000e+02,6.623557100000000446e+02
2.580000000000000000e+02,6.637568999999999733e+02
2.590000000000000000e+02,6.651570400000000518e+02
2.600000000000000000e+02,6.665521899999999960e+02
2.610000000000000000e+02,6.679446400000000494e+02
2.620000000000000000e+02,6.693298999999999523e+02
2.630000000000000000e+02,6.707139899999999670e+02
2.640000000000000000e+02,6.720892900000000054e+02
2.650000000000000000e+02,6.734611200000000508e+02
2.660000000000000000e+02,6.748258700000000090e+02
2.670000000000000000e+02,6.761867099999999482e+02
2.680000000000000000e+02,6.775421800000000303e+02
2.690000000000000000e+02,6.788886099999999715e+02
2.700000000000000000e+02,6.802294900000000553e+02
2.710000000000000000e+02,6.815605500000000347e+02
2.720000000000000000e+02,6.828873899999999821e+02
2.730000000000000000e+02,6.842058100000000422e+02
2.740000000000000000e+02,6.855174600000000282e+02
2.750000000000000000e+02,6.868227500000000418e+02
2.760000000000000000e+02,6.881181000000000267e+02
2.770000000000000000e+02,6.894079600000000028e+02
2.780000000000000000e+02,6.906882299999999759e+02
2.790000000000000000e+02,6.919611800000000130e+02
2.800000000000000000e+02,6.932271700000000010e+02
2.810000000000000000e+02,6.944847399999999880e+02
2.820000000000000000e+02,6.957326699999999846e+02
2.830000000000000000e+02,6.969740600000000086e+02
2.840000000000000000e+02,6.982053799999999910e+02
2.850000000000000000e+02,6.994310900000000402e+02
2.860000000000000000e+02,7.006456299999999828e+02
2.870000000000000000e+02,7.018547999999999547e+02
2.880000000000000000e+02,7.030530999999999722e+02
2.890000000000000000e+02,7.042443799999999783e+02
2.900000000000000000e+02,7.054291399999999612e+02
2.910000000000000000e+02,7.066027199999999766e+02
2.920000000000000000e+02,7.077688000000000557e+02
2.930000000000000000e+02,7.089279800000000478e+02
2.940000000000000000e+02,7.100774499999999989e+02
2.950000000000000000e+02,7.112183199999999488e+02
2.960000000000000000e+02,7.123522900000000391e+02
2.970000000000000000e+02,7.134753399999999601e+02
2.980000000000000000e+02,7.145913100000000213e+02
2.990000000000000000e+02,7.157001999999999953e+02
3.000000000000000000e+02,7.168011500000000069e+02
3.010000000000000000e+02,7.178919100000000526e+02
3.020000000000000000e+02,7.189760099999999738e+02
3.030000000000000000e+02,7.200506599999999935e+02
3.040000000000000000e+02,7.211181000000000267e+02
3.050000000000000000e+02,7.221754200000000310e+02
3.060000000000000000e+02,7.232259500000000116e+02
3.070000000000000000e+02,7.242688000000000557e+02
3.080000000000000000e+02,7.253034099999999853e+02
3.090000000000000000e+02,7.263313600000000179e+02
3.100000000000000000e+02,7.273503399999999601e+02
3.110000000000000000e+02,7.283607799999999770e+02
3.120000000000000000e+02,7.293641999999999825e+02
3.130000000000000000e+02,7.303579099999999471e+02
3.140000000000000000e+02,7.313464999999999918e+02
3.150000000000000000e+02,7.323242199999999684e+02
3.160000000000000000e+02,7.332967499999999745e+02
3.170000000000000000e+02,7.342598900000000413e+02
3.180000000000000000e+02,7.352160599999999704e+02
3.190000000000000000e+02,7.361636399999999867e+02
3.200000000000000000e+02,7.371056499999999687e+02
3.210000000000000000e+02,7.380389999999999873e+02
3.220000000000000000e+02,7.389638700000000426e+02
3.230000000000000000e+02,7.398830600000000004e+02
3.240000000000000000e+02,7.407936999999999443e+02
3.250000000000000000e+02,7.416959799999999632e+02
3.260000000000000000e+02,7.425925899999999729e+02
3.270000000000000000e+02,7.434813799999999446e+02
3.280000000000000000e+02,7.443634600000000319e+02
3.290000000000000000e+02,7.452379200000000310e+02
3.300000000000000000e+02,7.461052200000000312e+02
3.310000000000000000e+02,7.469629499999999780e+02
3.320000000000000000e+02,7.478170800000000327e+02
3.330000000000000000e+02,7.486618700000000217e+02
3.340000000000000000e+02,7.495003699999999753e+02
3.350000000000000000e+02,7.503333699999999453e+02
3.360000000000000000e+02,7.511574699999999893e+02
3.370000000000000000e+02,7.519751599999999598e+02
3.380000000000000000e+02,7.527861299999999574e+02
3.390000000000000000e+02,7.535904500000000326e+02
3.400000000000000000e+02,7.543874499999999443e+02
3.410000000000000000e+02,7.551790200000000368e+02
3.420000000000000000e+02,7.559619800000000396e+02
3.430000000000000000e+02,7.567390699999999697e+02
3.440000000000000000e+02,7.575106200000000172e+02
3.450000000000000000e+02,7.582746600000000399e+02
3.460000000000000000e+02,7.590312500000000000e+02
3.470000000000000000e+02,7.597829000000000406e+02
3.480000000000000000e+02,7.605273399999999810e+02
3.490000000000000000e+02,7.612653199999999742e+02
3.500000000000000000e+02,7.619979899999999589e+02
3.510000000000000000e+02,7.627244299999999839e+02
3.520000000000000000e+02,7.634431200000000217e+02
3.530000000000000000e+02,7.641571000000000140e+02
3.540000000000000000e+02,7.648640699999999697e+02
3.550000000000000000e+02,7.655649399999999787e+02
3.560000000000000000e+02,7.662609300000000303e+02
3.570000000000000000e+02,7.669487900000000309e+02
3.580000000000000000e+02,7.676313499999999976e+02
3.590000000000000000e+02,7.683086499999999432e+02
3.600000000000000000e+02,7.689799199999999928e+02
3.610000000000000000e+02,7.696439199999999801e+02
3.620000000000000000e+02,7.703031600000000481e+02
3.630000000000000000e+02,7.709566700000000310e+02
3.640000000000000000e+02,7.716033300000000281e+02
3.650000000000000000e+02,7.722457299999999805e+02
3.660000000000000000e+02,7.728830600000000004e+02
3.670000000000000000e+02,7.735129399999999578e+02
3.680000000000000000e+02,7.741390999999999849e+02
3.690000000000000000e+02,7.747576900000000251e+02
3.700000000000000000e+02,7.753717699999999695e+02
3.710000000000000000e+02,7.759809599999999818e+02
3.720000000000000000e+02,7.765843499999999722e+02
3.730000000000000000e+02,7.771810900000000402e+02
3.740000000000000000e+02,7.777742899999999509e+02
3.750000000000000000e+02,7.783612100000000282e+02
3.760000000000000000e+02,7.789429300000000467e+02
3.770000000000000000e+02,7.795192299999999932e+02
3.780000000000000000e+02,7.800916700000000219e+02
3.790000000000000000e+02,7.806568600000000515e+02
3.800000000000000000e+02,7.812196699999999510e+02
3.810000000000000000e+02,7.817747799999999643e+02
3.820000000000000000e+02,7.823259900000000471e+02
3.830000000000000000e+02,7.828732300000000350e+02
3.840000000000000000e+02,7.834136399999999867e+02
3.850000000000000000e+02,7.839506199999999581e+02
3.860000000000000000e+02,7.844823599999999715e+02
3.870000000000000000e+02,7.850089100000000144e+02
3.880000000000000000e+02,7.855305200000000241e+02
3.890000000000000000e+02,7.860482799999999770e+02
3.900000000000000000e+02,7.865598800000000210e+02
3.910000000000000000e+02,7.870679300000000467e+02
3.920000000000000000e+02,7.875710400000000391e+02
3.930000000000000000e+02,7.880693999999999733e+02
3.940000000000000000e+02,7.885629300000000512e+02
3.950000000000000000e+02,7.890529800000000478e+02
3.960000000000000000e+02,7.895380900000000111e+02
3.970000000000000000e+02,7.900178799999999910e+02
3.980000000000000000e+02,7.904942600000000539e+02
3.990000000000000000e+02,7.909658200000000079e+02
4.000000000000000000e+02,7.914330400000000054e+02
4.010000000000000000e+02,7.918966699999999719e+02
4.020000000000000000e+02,7.923548600000000306e+02
4.030000000000000000e+02,7.928088400000000320e+02
4.040000000000000000e+02,7.932600700000000415e+02
4.050000000000000000e+02,7.937061200000000554e+02
4.060000000000000000e+02,7.941473999999999478e+02
4.070000000000000000e+02,7.945855099999999993e+02
4.080000000000000000e+02,7.950192899999999554e+02
4.090000000000000000e+02,7.954487900000000309e+02
4.100000000000000000e+02,7.958743899999999485e+02
4.110000000000000000e+02,7.962961400000000367e+02
4.120000000000000000e+02,7.967137500000000045e+02
4.130000000000000000e+02,7.971281099999999924e+02
4.140000000000000000e+02,7.975376599999999598e+02
4.150000000000000000e+02,7.979436600000000226e+02
4.160000000000000000e+02,7.983461300000000165e+02
4.170000000000000000e+02,7.987452399999999670e+02
4.180000000000000000e+02,7.991398900000000367e+02
4.190000000000000000e+02,7.995314300000000003e+02
4.200000000000000000e+02,7.999191899999999578e+02
4.210000000000000000e+02,8.003024299999999585e+02
4.220000000000000000e+02,8.006823699999999917e+02
4.230000000000000000e+02,8.010585899999999810e+02
4.240000000000000000e+02,8.014314600000000155e+02
4.250000000000000000e+02,8.018014500000000453e+02
4.260000000000000000e+02,8.021674799999999550e+02
4.270000000000000000e+02,8.025298500000000104e+02
4.280000000000000000e+02,8.028892799999999852e+02
4.290000000000000000e+02,8.032450000000000045e+02
4.300000000000000000e+02,8.035972299999999677e+02
4.310000000000000000e+02,8.039466599999999517e+02
4.320000000000000000e+02,8.042923600000000306e+02
4.330000000000000000e+02,8.046348299999999654e+02
4.340000000000000000e+02,8.049738200000000461e+02
4.350000000000000000e+02,8.053095700000000079e+02
4.360000000000000000e+02,8.056419700000000148e+02
4.370000000000000000e+02,8.059717399999999543e+02
4.380000000000000000e+02,8.062979699999999639e+02
4.390000000000000000e+02,8.066212199999999939e+02
4.400000000000000000e+02,8.069412800000000061e+02
4.410000000000000000e+02,8.072582999999999629e+02
4.420000000000000000e+02,8.075726300000000037e+02
4.430000000000000000e+02,8.078841599999999517e+02
4.440000000000000000e+02,8.081923199999999952e+02
4.450000000000000000e+02,8.084968300000000454e+02
4.460000000000000000e+02,8.087994400000000041e+02
4.470000000000000000e+02,8.090985699999999952e+02
4.480000000000000000e+02,8.093949599999999691e+02
4.490000000000000000e+02,8.096883500000000140e+02
4.500000000000000000e+02,8.099794299999999794e+02
4.510000000000000000e+02,8.102671500000000151e+02
4.520000000000000000e+02,8.105526700000000346e+02
4.530000000000000000e+02,8.108345900000000483e+02
4.540000000000000000e+02,8.111141400000000203e+02
4.550000000000000000e+02,8.113914800000000014e+02
4.560000000000000000e+02,8.116655899999999519e+02
4.570000000000000000e+02,8.119371899999999869e+02
4.580000000000000000e+02,8.122065400000000182e+02
4.590000000000000000e+02,8.124729599999999436e+02
4.600000000000000000e+02,8.127365099999999529e+02
4.610000000000000000e+02,8.129982899999999972e+02
4.620000000000000000e+02,8.132570799999999736e+02
4.630000000000000000e+02,8.135127599999999575e+02
4.640000000000000000e+02,8.137670900000000529e+02
4.650000000000000000e+02,8.140183100000000422e+02
4.660000000000000000e+02,8.142666600000000017e+02
4.670000000000000000e+02,8.145134299999999712e+02
4.680000000000000000e+02,8.147571400000000494e+02
4.690000000000000000e+02,8.149987200000000485e+02
4.700000000000000000e+02,8.152383399999999938e+02
4.710000000000000000e+02,8.154751599999999598e+02
4.720000000000000000e+02,8.157099600000000237e+02
4.730000000000000000e+02,8.159420800000000327e+02
4.740000000000000000e+02,8.161724900000000389e+02
4.750000000000000000e+02,8.164002699999999777e+02
4.760000000000000000e+02,8.166258500000000140e+02
4.770000000000000000e+02,8.168495500000000220e+02
4.780000000000000000e+02,8.170701299999999492e+02
4.790000000000000000e+02,8.172895499999999629e+02
4.800000000000000000e+02,8.175062900000000354e+02
4.810000000000000000e+02,8.177210700000000543e+02
4.820000000000000000e+02,8.179342699999999695e+02
4.830000000000000000e+02,8.181444099999999935e+02
4.840000000000000000e+02,8.183529099999999517e+02
4.850000000000000000e+02,8.185595100000000457e+02
4.860000000000000000e+02,8.187640999999999849e+02
4.870000000000000000e+02,8.189662499999999454e+02
4.880000000000000000e+02,8.191671099999999797e+02
4.890000000000000000e+02,8.193651700000000346e+02
4.900000000000000000e+02,8.195619500000000244e+02
4.910000000000000000e+02,8.197564099999999598e+02
4.920000000000000000e+02,8.199494600000000446e+02
4.930000000000000000e+02,8.201397699999999986e+02
4.940000000000000000e+02,8.203292800000000398e+02
4.950000000000000000e+02,8.205158699999999499e+02
4.960000000000000000e+02,8.207013500000000477e+02
4.970000000000000000e+02,8.208844599999999900e+02
4.980000000000000000e+02,8.210664100000000190e+02
4.990000000000000000e+02,8.212456700000000183e+02
5.000000000000000000e+02,8.214235800000000154e+02
5.010000000000000000e+02,8.216000999999999976e+02
5.020000000000000000e+02,8.217741099999999506e+02
5.030000000000000000e+02,8.219475099999999657e+02
5.040000000000000000e+02,8.221181599999999889e+02
5.050000000000000000e+02,8.222878399999999601e+02
5.060000000000000000e+02,8.224553200000000288e+02
5.070000000000000000e+02,8.226212799999999561e+02
5.080000000000000000e+02,8.227859499999999571e+02
5.090000000000000000e+02,8.229484899999999925e+02
5.100000000000000000e+02,8.231099199999999882e+02
5.110000000000000000e+02,8.232690400000000182e+02
5.120000000000000000e+02,8.234274900000000343e+02
5.130000000000000000e+02,8.235834399999999960e+02
5.140000000000000000e+02,8.237381599999999935e+02
5.150000000000000000e+02,8.238917800000000398e+02
5.160000000000000000e+02,8.240434000000000196e+02
5.170000000000000000e+02,8.241937900000000354e+02
5.180000000000000000e+02,8.243425300000000107e+02
5.190000000000000000e+02,8.244898699999999963e+02
5.200000000000000000e+02,8.246358000000000175e+02
5.210000000000000000e+02,8.247801500000000487e+02
5.220000000000000000e+02,8.249228500000000395e+02
5.230000000000000000e+02,8.250646400000000540e+02
5.240000000000000000e+02,8.252047099999999773e+02
5.250000000000000000e+02,8.253431399999999485e+02
5.260000000000000000e+02,8.254807700000000068e+02
5.270000000000000000e+02,8.256164599999999609e+02
5.280000000000000000e+02,8.257509800000000268e+02
5.290000000000000000e+02,8.258844599999999900e+02
5.300000000000000000e+02,8.260162400000000389e+02
5.310000000000000000e+02,8.261467900000000100e+02
5.320000000000000000e+02,8.262761799999999539e+02
5.330000000000000000e+02,8.264041700000000219e+02
5.340000000000000000e+02,8.265308800000000247e+02
5.350000000000000000e+02,8.266564899999999625e+02
5.360000000000000000e+02,8.267806399999999485e+02
5.370000000000000000e+02,8.269035599999999704e+02
5.380000000000000000e+02,8.270254499999999780e+02
5.390000000000000000e+02,8.271459399999999960e+02
5.400000000000000000e+02,8.272652600000000120e+02
5.410000000000000000e+02,8.273834799999999632e+02
5.420000000000000000e+02,8.275003699999999753e+02
5.430000000000000000e+02,8.276160899999999856e+02
5.440000000000000000e+02,8.277308299999999690e+02
5.450000000000000000e+02,8.278442999999999756e+02
5.460000000000000000e+02,8.279564800000000560e+02
5.470000000000000000e+02,8.280674400000000333e+02
5.480000000000000000e+02,8.281780400000000100e+02
5.490000000000000000e+02,8.282867999999999711e+02
5.500000000000000000e+02,8.283945300000000316e+02
5.510000000000000000e+02,8.285018300000000409e+02
5.520000000000000000e+02,8.286073599999999715e+02
5.530000000000000000e+02,8.287117299999999886e+02
5.540000000000000000e+02,8.288154899999999543e+02
5.550000000000000000e+02,8.289184000000000196e+02
5.560000000000000000e+02,8.290197100000000319e+02
5.570000000000000000e+02,8.291201200000000426e+02
5.580000000000000000e+02,8.292196000000000140e+02
5.590000000000000000e+02,8.293183599999999842e+02
5.600000000000000000e+02,8.294157699999999522e+02
5.610000000000000000e+02,8.295122099999999818e+02
5.620000000000000000e+02,8.296076699999999846e+02
5.630000000000000000e+02,8.297028199999999742e+02
5.640000000000000000e+02,8.297961999999999989e+02
5.650000000000000000e+02,8.298887300000000096e+02
5.660000000000000000e+02,8.299806499999999687e+02
5.670000000000000000e+02,8.300717200000000275e+02
5.680000000000000000e+02,8.301614399999999705e+02
5.690000000000000000e+02,8.302505499999999756e+02
5.700000000000000000e+02,8.303385600000000295e+02
5.710000000000000000e+02,8.304256599999999935e+02
5.720000000000000000e+02,8.305123899999999821e+02
5.730000000000000000e+02,8.305977199999999812e+02
5.740000000000000000e+02,8.306822499999999536e+02
5.750000000000000000e+02,8.307660499999999502e+02
5.760000000000000000e+02,8.308492999999999711e+02
5.770000000000000000e+02,8.309312700000000405e+02
5.780000000000000000e+02,8.310125699999999824e+02
5.790000000000000000e+02,8.310928999999999860e+02
5.800000000000000000e+02,8.311724199999999882e+02
5.810000000000000000e+02,8.312517699999999650e+02
5.820000000000000000e+02,8.313296500000000151e+02
5.830000000000000000e+02,8.314067999999999756e+02
5.840000000000000000e+02,8.314831500000000233e+02
5.850000000000000000e+02,8.315588400000000320e+02
5.860000000000000000e+02,8.316340900000000147e+02
5.870000000000000000e+02,8.317082500000000209e+02
5.880000000000000000e+02,8.317815600000000131e+02
5.890000000000000000e+02,8.318540000000000418e+02
5.900000000000000000e+02,8.319259600000000319e+02
5.910000000000000000e+02,8.319971900000000460e+02
5.920000000000000000e+02,8.320679900000000089e+02
5.930000000000000000e+02,8.321376999999999953e+02
5.940000000000000000e+02,8.322067299999999932e+02
5.950000000000000000e+02,8.322749599999999646e+02
5.960000000000000000e+02,8.323427699999999732e+02
5.970000000000000000e+02,8.324101600000000190e+02
5.980000000000000000e+02,8.324763799999999492e+02
5.990000000000000000e+02,8.325419299999999794e+02