# Time [s], Temperature [C]
1.000000000000000000e+00,2.500000000000000000e+01
2.000000000000000000e+00,2.500000000000000000e+01
3.000000000000000000e+00,2.500000000000000000e+01
4.000000000000000000e+00,2.500000000000000000e+01
5.000000000000000000e+00,2.500000199999999850e+01
6.000000000000000000e+00,2.500000599999999906e+01
7.000000000000000000e+00,2.500002500000000083e+01
8.000000000000000000e+00,2.500008400000000108e+01
9.000000000000000000e+00,2.500024399999999858e+01
1.000000000000000000e+01,2.500062199999999990e+01
1.100000000000000000e+01,2.500140800000000141e+01
1.200000000000000000e+01,2.500289300000000026e+01
1.300000000000000000e+01,2.500546800000000047e+01
1.400000000000000000e+01,2.500962099999999921e+01
1.500000000000000000e+01,2.501592399999999827e+01
1.600000000000000000e+01,2.502501099999999923e+01
1.700000000000000000e+01,2.503755999999999915e+01
1.800000000000000000e+01,2.505425599999999875e+01
1.900000000000000000e+01,2.507579000000000136e+01
2.000000000000000000e+01,2.510282700000000133e+01
2.100000000000000000e+01,2.513599200000000167e+01
2.200000000000000000e+01,2.517587100000000078e+01
2.300000000000000000e+01,2.522298999999999936e+01
2.400000000000000000e+01,2.527782600000000102e+01
2.500000000000000000e+01,2.534079399999999893e+01
2.600000000000000000e+01,2.541224700000000070e+01
2.700000000000000000e+01,2.549248899999999907e+01
2.800000000000000000e+01,2.558176200000000122e+01
2.900000000000000000e+01,2.568026400000000109e+01
3.000000000000000000e+01,2.578813699999999898e+01
3.100000000000000000e+01,2.590549100000000138e+01
3.200000000000000000e+01,2.603238500000000144e+01
3.300000000000000000e+01,2.616884399999999999e+01
3.400000000000000000e+01,2.631486500000000106e+01
3.500000000000000000e+01,2.647041099999999858e+01
3.600000000000000000e+01,2.663542400000000043e+01
3.700000000000000000e+01,2.680981799999999993e+01
3.800000000000000000e+01,2.699348799999999926e+01
3.900000000000000000e+01,2.718632099999999951e+01
4.000000000000000000e+01,2.738817399999999935e+01
4.100000000000000000e+01,2.759890400000000099e+01
4.200000000000000000e+01,2.781834800000000030e+01
4.300000000000000000e+01,2.804634499999999875e+01
4.400000000000000000e+01,2.828272099999999867e+01
4.500000000000000000e+01,2.852728799999999865e+01
4.600000000000000000e+01,2.877986699999999942e+01
4.700000000000000000e+01,2.904027400000000014e+01
4.800000000000000000e+01,2.930830600000000175e+01
4.900000000000000000e+01,2.958378199999999936e+01
5.000000000000000000e+01,2.986651399999999867e+01
5.100000000000000000e+01,3.015630000000000166e+01
5.200000000000000000e+01,3.045294799999999924e+01
5.300000000000000000e+01,3.075627100000000169e+01
5.400000000000000000e+01,3.106608400000000003e+01
5.500000000000000000e+01,3.138219099999999884e+01
5.600000000000000000e+01,3.170441399999999987e+01
5.700000000000000000e+01,3.203257399999999677e+01
5.800000000000000000e+01,3.236647800000000075e+01
5.900000000000000000e+01,3.270596299999999701e+01
6.000000000000000000e+01,3.305084599999999995e+01
6.100000000000000000e+01,3.340095500000000328e+01
6.200000000000000000e+01,3.375613400000000297e+01
6.300000000000000000e+01,3.411621499999999685e+01
6.400000000000000000e+01,3.448104099999999761e+01
6.500000000000000000e+01,3.485045199999999710e+01
6.600000000000000000e+01,3.522429300000000296e+01
6.700000000000000000e+01,3.560242099999999965e+01
6.800000000000000000e+01,3.598467999999999734e+01
6.900000000000000000e+01,3.637093699999999785e+01
7.000000000000000000e+01,3.676105100000000192e+01
7.100000000000000000e+01,3.715488799999999969e+01
7.200000000000000000e+01,3.755231500000000011e+01
7.300000000000000000e+01,3.795320499999999697e+01
7.400000000000000000e+01,3.835743300000000033e+01
7.500000000000000000e+01,3.876488100000000259e+01
7.600000000000000000e+01,3.917542600000000164e+01
7.700000000000000000e+01,3.958895900000000267e+01
7.800000000000000000e+01,4.000536699999999968e+01
7.900000000000000000e+01,4.042454099999999784e+01
8.000000000000000000e+01,4.084637500000000188e+01
8.100000000000000000e+01,4.127076699999999931e+01
8.200000000000000000e+01,4.169761299999999693e+01
8.300000000000000000e+01,4.212682300000000168e+01
8.400000000000000000e+01,4.255830000000000268e+01
8.500000000000000000e+01,4.299195100000000025e+01
8.600000000000000000e+01,4.342768900000000087e+01
8.700000000000000000e+01,4.386543999999999954e+01
8.800000000000000000e+01,4.430510300000000257e+01
8.900000000000000000e+01,4.474660500000000241e+01
9.000000000000000000e+01,4.518986100000000050e+01
9.100000000000000000e+01,4.563479999999999848e+01
9.200000000000000000e+01,4.608134499999999889e+01
9.300000000000000000e+01,4.652942300000000131e+01
9.400000000000000000e+01,4.697896599999999978e+01
9.500000000000000000e+01,4.742990499999999798e+01
9.600000000000000000e+01,4.788219099999999884e+01
9.700000000000000000e+01,4.833575100000000191e+01
9.800000000000000000e+01,4.879050800000000265e+01
9.900000000000000000e+01,4.924640699999999782e+01
1.000000000000000000e+02,4.970339200000000091e+01
1.010000000000000000e+02,5.016140399999999744e+01
1.020000000000000000e+02,5.062039599999999950e+01
1.030000000000000000e+02,5.108033400000000057e+01
1.040000000000000000e+02,5.154113799999999657e+01
1.050000000000000000e+02,5.200275400000000303e+01
1.060000000000000000e+02,5.246514499999999970e+01
1.070000000000000000e+02,5.292826099999999911e+01
1.080000000000000000e+02,5.339205900000000327e+01
1.090000000000000000e+02,5.385651399999999711e+01
1.100000000000000000e+02,5.432155999999999807e+01
1.110000000000000000e+02,5.478714800000000196e+01
1.120000000000000000e+02,5.525324200000000019e+01
1.130000000000000000e+02,5.571981000000000250e+01
1.140000000000000000e+02,5.618681699999999779e+01
1.150000000000000000e+02,5.665424000000000149e+01
1.160000000000000000e+02,5.712202099999999660e+01
1.170000000000000000e+02,5.759011799999999681e+01
1.180000000000000000e+02,5.805850999999999829e+01
1.190000000000000000e+02,5.852716399999999908e+01
1.200000000000000000e+02,5.899605199999999883e+01
1.210000000000000000e+02,5.946515999999999735e+01
1.220000000000000000e+02,5.993443700000000263e+01
1.230000000000000000e+02,6.040384300000000195e+01
1.240000000000000000e+02,6.087336299999999767e+01
1.250000000000000000e+02,6.134296799999999905e+01
1.260000000000000000e+02,6.181264500000000339e+01
1.270000000000000000e+02,6.228237200000000229e+01
1.280000000000000000e+02,6.275210200000000071e+01
1.290000000000000000e+02,6.322181700000000149e+01
1.300000000000000000e+02,6.369149399999999872e+01
1.310000000000000000e+02,6.416111800000000187e+01
1.320000000000000000e+02,6.463066899999999748e+01
1.330000000000000000e+02,6.510013600000000622e+01
1.340000000000000000e+02,6.556946600000000558e+01
1.350000000000000000e+02,6.603865799999999808e+01
1.360000000000000000e+02,6.650768999999999664e+01
1.370000000000000000e+02,6.697654699999999650e+01
1.380000000000000000e+02,6.744522100000000364e+01
1.390000000000000000e+02,6.791368900000000508e+01
1.400000000000000000e+02,6.838191999999999382e+01
1.410000000000000000e+02,6.884989899999999352e+01
1.420000000000000000e+02,6.931761899999999343e+01
1.430000000000000000e+02,6.978507199999999955e+01
1.440000000000000000e+02,7.025225100000000111e+01
1.450000000000000000e+02,7.071911599999999964e+01
1.460000000000000000e+02,7.118565399999999954e+01
1.470000000000000000e+02,7.165185499999999763e+01
1.480000000000000000e+02,7.211771400000000654e+01
1.490000000000000000e+02,7.258322099999999466e+01
1.500000000000000000e+02,7.304836299999999483e+01
1.510000000000000000e+02,7.351313799999999787e+01
1.520000000000000000e+02,7.397750899999999774e+01
1.530000000000000000e+02,7.444146700000000294e+01
1.540000000000000000e+02,7.490501399999999421e+01
1.550000000000000000e+02,7.536814099999999428e+01
1.560000000000000000e+02,7.583084100000000660e+01
1.570000000000000000e+02,7.629310599999999454e+01
1.580000000000000000e+02,7.675491300000000194e+01
1.590000000000000000e+02,7.721624799999999311e+01
1.600000000000000000e+02,7.767710900000000152e+01
1.610000000000000000e+02,7.813748900000000219e+01
1.620000000000000000e+02,7.859738199999999608e+01
1.630000000000000000e+02,7.905679299999999898e+01
1.640000000000000000e+02,7.951570100000000707e+01
1.650000000000000000e+02,7.997409799999999791e+01
1.660000000000000000e+02,8.043197600000000591e+01
1.670000000000000000e+02,8.088931999999999789e+01
1.680000000000000000e+02,8.134613000000000227e+01
1.690000000000000000e+02,8.180240600000000484e+01
1.700000000000000000e+02,8.225814800000000560e+01
1.710000000000000000e+02,8.271334099999999978e+01
1.720000000000000000e+02,8.316796899999999937e+01
1.730000000000000000e+02,8.362203999999999837e+01
1.740000000000000000e+02,8.407553900000000624e+01
1.750000000000000000e+02,8.452846499999999708e+01
1.760000000000000000e+02,8.498081200000000024e+01
1.770000000000000000e+02,8.543257099999999582e+01
1.780000000000000000e+02,8.588375899999999774e+01
1.790000000000000000e+02,8.633435099999999807e+01
1.800000000000000000e+02,8.678434799999999427e+01
1.810000000000000000e+02,8.723373399999999833e+01
1.820000000000000000e+02,8.768251800000000173e+01
1.830000000000000000e+02,8.813069199999999626e+01
1.840000000000000000e+02,8.857825499999999863e+01
1.850000000000000000e+02,8.902519200000000410e+01
1.860000000000000000e+02,8.947152699999999470e+01
1.870000000000000000e+02,8.991723600000000260e+01
1.880000000000000000e+02,9.036231200000000285e+01
1.890000000000000000e+02,9.080676300000000367e+01
1.900000000000000000e+02,9.125057200000000535e+01
1.910000000000000000e+02,9.169374799999999937e+01
1.920000000000000000e+02,9.213628400000000340e+01
1.930000000000000000e+02,9.257817799999999409e+01
1.940000000000000000e+02,9.301942400000000077e+01
1.950000000000000000e+02,9.346003000000000327e+01
1.960000000000000000e+02,9.389997900000000186e+01
1.970000000000000000e+02,9.433928699999999878e+01
1.980000000000000000e+02,9.477793099999999527e+01
1.990000000000000000e+02,9.521591899999999953e+01
2.000000000000000000e+02,9.565325199999999484e+01
2.010000000000000000e+02,9.608992000000000644e+01
2.020000000000000000e+02,9.652592500000000086e+01
2.030000000000000000e+02,9.696125800000000083e+01
2.040000000000000000e+02,9.739593499999999437e+01
2.050000000000000000e+02,9.782993299999999692e+01
2.060000000000000000e+02,9.826327499999999304e+01
2.070000000000000000e+02,9.869593799999999817e+01
2.080000000000000000e+02,9.912793700000000285e+01
2.090000000000000000e+02,9.955925000000000580e+01
2.100000000000000000e+02,9.998989100000000008e+01
2.110000000000000000e+02,1.004198599999999999e+02
2.120000000000000000e+02,1.008491400000000056e+02
2.130000000000000000e+02,1.012777499999999975e+02
2.140000000000000000e+02,1.017056699999999978e+02
2.150000000000000000e+02,1.021329000000000065e+02
2.160000000000000000e+02,1.025594600000000014e+02
2.170000000000000000e+02,1.029853300000000047e+02
2.180000000000000000e+02,1.034105100000000022e+02
2.190000000000000000e+02,1.038350099999999969e+02
2.200000000000000000e+02,1.042588300000000032e+02
2.210000000000000000e+02,1.046819500000000005e+02
2.220000000000000000e+02,1.051043899999999951e+02
2.230000000000000000e+02,1.055261500000000012e+02
2.240000000000000000e+02,1.059471999999999952e+02
2.250000000000000000e+02,1.063675700000000006e+02
2.260000000000000000e+02,1.067872500000000002e+02
2.270000000000000000e+02,1.072062200000000018e+02
2.280000000000000000e+02,1.076245200000000040e+02
2.290000000000000000e+02,1.080421199999999970e+02
2.300000000000000000e+02,1.084590199999999953e+02
2.310000000000000000e+02,1.088752400000000051e+02
2.320000000000000000e+02,1.092907500000000027e+02
2.330000000000000000e+02,1.097055699999999945e+02
2.340000000000000000e+02,1.101196999999999946e+02
2.350000000000000000e+02,1.105331299999999999e+02
2.360000000000000000e+02,1.109458499999999930e+02
2.370000000000000000e+02,1.113578899999999976e+02
2.380000000000000000e+02,1.117692399999999964e+02
2.390000000000000000e+02,1.121798900000000003e+02
2.400000000000000000e+02,1.125898399999999953e+02
2.410000000000000000e+02,1.129990800000000064e+02
2.420000000000000000e+02,1.134076400000000007e+02
2.430000000000000000e+02,1.138155000000000001e+02
2.440000000000000000e+02,1.142226600000000047e+02
2.450000000000000000e+02,1.146291300000000035e+02
2.460000000000000000e+02,1.150348900000000043e+02
2.470000000000000000e+02,1.154399599999999992e+02
2.480000000000000000e+02,1.158443199999999962e+02
2.490000000000000000e+02,1.162480000000000047e+02
2.500000000000000000e+02,1.166509800000000041e+02
2.510000000000000000e+02,1.170532599999999945e+02
2.520000000000000000e+02,1.174548400000000044e+02
2.530000000000000000e+02,1.178557299999999941e+02
2.540000000000000000e+02,1.182559200000000033e+02
2.550000000000000000e+02,1.186554100000000034e+02
2.560000000000000000e+02,1.190542099999999976e+02
2.570000000000000000e+02,1.194523099999999971e+02
2.580000000000000000e+02,1.198497200000000049e+02
2.590000000000000000e+02,1.202464099999999974e+02
2.600000000000000000e+02,1.206424300000000045e+02
2.610000000000000000e+02,1.210377500000000026e+02
2.620000000000000000e+02,1.214323700000000059e+02
2.630000000000000000e+02,1.218263000000000034e+02
2.640000000000000000e+02,1.222195399999999950e+02
2.650000000000000000e+02,1.226120800000000060e+02
2.660000000000000000e+02,1.230039199999999937e+02
2.670000000000000000e+02,1.233950700000000040e+02
2.680000000000000000e+02,1.237855299999999943e+02
2.690000000000000000e+02,1.241752900000000039e+02
2.700000000000000000e+02,1.245643599999999935e+02
2.710000000000000000e+02,1.249527400000000057e+02
2.720000000000000000e+02,1.253404199999999946e+02
2.730000000000000000e+02,1.257274000000000029e+02
2.740000000000000000e+02,1.261136999999999944e+02
2.750000000000000000e+02,1.264993099999999941e+02
2.760000000000000000e+02,1.268842199999999991e+02
2.770000000000000000e+02,1.272684600000000046e+02
2.780000000000000000e+02,1.276519899999999978e+02
2.790000000000000000e+02,1.280348400000000026e+02
2.800000000000000000e+02,1.284170100000000048e+02
2.810000000000000000e+02,1.287984800000000121e+02
2.820000000000000000e+02,1.291792399999999930e+02
2.830000000000000000e+02,1.295593399999999917e+02
2.840000000000000000e+02,1.299387399999999957e+02
2.850000000000000000e+02,1.303174400000000048e+02
2.860000000000000000e+02,1.306954700000000003e+02
2.870000000000000000e+02,1.310728100000000040e+02
2.880000000000000000e+02,1.314494599999999878e+02
2.890000000000000000e+02,1.318254200000000083e+02
2.900000000000000000e+02,1.322007099999999866e+02
2.910000000000000000e+02,1.325753200000000049e+02
2.920000000000000000e+02,1.329492300000000000e+02
2.930000000000000000e+02,1.333224600000000066e+02
2.940000000000000000e+02,1.336950199999999995e+02
2.950000000000000000e+02,1.340668900000000008e+02
2.960000000000000000e+02,1.344380800000000136e+02
2.970000000000000000e+02,1.348085800000000063e+02
2.980000000000000000e+02,1.351784100000000137e+02
2.990000000000000000e+02,1.355475500000000011e+02
3.000000000000000000e+02,1.359159999999999968e+02
3.010000000000000000e+02,1.362838000000000136e+02
3.020000000000000000e+02,1.366508900000000040e+02
3.030000000000000000e+02,1.370173200000000122e+02
3.040000000000000000e+02,1.373830700000000036e+02
3.050000000000000000e+02,1.377481400000000065e+02
3.060000000000000000e+02,1.381125299999999925e+02
3.070000000000000000e+02,1.384762599999999964e+02
3.080000000000000000e+02,1.388392900000000054e+02
3.090000000000000000e+02,1.392016600000000039e+02
3.100000000000000000e+02,1.395633500000000140e+02
3.110000000000000000e+02,1.399243800000000135e+02
3.120000000000000000e+02,1.402847299999999962e+02
3.130000000000000000e+02,1.406443899999999871e+02
3.140000000000000000e+02,1.410033999999999992e+02
3.150000000000000000e+02,1.413617199999999912e+02
3.160000000000000000e+02,1.417193900000000042e+02
3.170000000000000000e+02,1.420763699999999972e+02
3.180000000000000000e+02,1.424326900000000080e+02
3.190000000000000000e+02,1.427883500000000083e+02
3.200000000000000000e+02,1.431433299999999917e+02
3.210000000000000000e+02,1.434976499999999930e+02
3.220000000000000000e+02,1.438512900000000059e+02
3.230000000000000000e+02,1.442042700000000082e+02
3.240000000000000000e+02,1.445565799999999967e+02
3.250000000000000000e+02,1.449082200000000000e+02
3.260000000000000000e+02,1.452591999999999928e+02
3.270000000000000000e+02,1.456095300000000066e+02
3.280000000000000000e+02,1.459591800000000035e+02
3.290000000000000000e+02,1.463081799999999930e+02
3.300000000000000000e+02,1.466565099999999973e+02
3.310000000000000000e+02,1.470041699999999878e+02
3.320000000000000000e+02,1.473511699999999962e+02
3.330000000000000000e+02,1.476975099999999941e+02
3.340000000000000000e+02,1.480432000000000130e+02
3.350000000000000000e+02,1.483882299999999930e+02
3.360000000000000000e+02,1.487325999999999908e+02
3.370000000000000000e+02,1.490763100000000065e+02
3.380000000000000000e+02,1.494193400000000054e+02
3.390000000000000000e+02,1.497617300000000000e+02
3.400000000000000000e+02,1.501034899999999936e+02
3.410000000000000000e+02,1.504445599999999956e+02
3.420000000000000000e+02,1.507849899999999934e+02
3.430000000000000000e+02,1.511247600000000091e+02
3.440000000000000000e+02,1.514638799999999890e+02
3.450000000000000000e+02,1.518023399999999867e+02
3.460000000000000000e+02,1.521401500000000055e+02
3.470000000000000000e+02,1.524773099999999886e+02
3.480000000000000000e+02,1.528138299999999958e+02
3.490000000000000000e+02,1.531496899999999926e+02
3.500000000000000000e+02,1.534848900000000071e+02
3.510000000000000000e+02,1.538194399999999860e+02
3.520000000000000000e+02,1.541533499999999890e+02
3.530000000000000000e+02,1.544866199999999878e+02
3.540000000000000000e+02,1.548192400000000077e+02
3.550000000000000000e+02,1.551511999999999887e+02
3.560000000000000000e+02,1.554825299999999970e+02
3.570000000000000000e+02,1.558131899999999916e+02
3.580000000000000000e+02,1.561432200000000137e+02
3.590000000000000000e+02,1.564726100000000031e+02
3.600000000000000000e+02,1.568013599999999883e+02
3.610000000000000000e+02,1.571294599999999946e+02
3.620000000000000000e+02,1.574569099999999935e+02
3.630000000000000000e+02,1.577837199999999882e+02
3.640000000000000000e+02,1.581098900000000071e+02
3.650000000000000000e+02,1.584354199999999935e+02
3.660000000000000000e+02,1.587603300000000104e+02
3.670000000000000000e+02,1.590845799999999883e+02
3.680000000000000000e+02,1.594081899999999905e+02
3.690000000000000000e+02,1.597311699999999917e+02
3.700000000000000000e+02,1.600535099999999886e+02
3.710000000000000000e+02,1.603752100000000098e+02
3.720000000000000000e+02,1.606962699999999984e+02
3.730000000000000000e+02,1.610167099999999891e+02
3.740000000000000000e+02,1.613365200000000073e+02
3.750000000000000000e+02,1.616556699999999864e+02
3.760000000000000000e+02,1.619741999999999962e+02
3.770000000000000000e+02,1.622921000000000049e+02
3.780000000000000000e+02,1.626093600000000094e+02
3.790000000000000000e+02,1.629260099999999909e+02
3.800000000000000000e+02,1.632419999999999902e+02
3.810000000000000000e+02,1.635573699999999917e+02
3.820000000000000000e+02,1.638721299999999985e+02
3.830000000000000000e+02,1.641862299999999948e+02
3.840000000000000000e+02,1.644997299999999996e+02
3.850000000000000000e+02,1.648125900000000001e+02
3.860000000000000000e+02,1.651248199999999997e+02
3.870000000000000000e+02,1.654364300000000014e+02
3.880000000000000000e+02,1.657474100000000021e+02
3.890000000000000000e+02,1.660577700000000050e+02
3.900000000000000000e+02,1.663674900000000036e+02
3.910000000000000000e+02,1.666766100000000108e+02
3.920000000000000000e+02,1.669850900000000138e+02
3.930000000000000000e+02,1.672929499999999905e+02
3.940000000000000000e+02,1.676001899999999978e+02
3.950000000000000000e+02,1.679068100000000072e+02
3.960000000000000000e+02,1.682128099999999904e+02
3.970000000000000000e+02,1.685182000000000073e+02
3.980000000000000000e+02,1.688229699999999980e+02
3.990000000000000000e+02,1.691271099999999876e+02
4.000000000000000000e+02,1.694306300000000078e+02
4.010000000000000000e+02,1.697335500000000081e+02
4.020000000000000000e+02,1.700358400000000074e+02
4.030000000000000000e+02,1.703375200000000120e+02
4.040000000000000000e+02,1.706385799999999904e+02
4.050000000000000000e+02,1.709390400000000056e+02
4.060000000000000000e+02,1.712388799999999947e+02
4.070000000000000000e+02,1.715380900000000111e+02
4.080000000000000000e+02,1.718367000000000075e+02
4.090000000000000000e+02,1.721347000000000094e+02
4.100000000000000000e+02,1.724320800000000133e+02
4.110000000000000000e+02,1.727288700000000006e+02
4.120000000000000000e+02,1.730250399999999900e+02
4.130000000000000000e+02,1.733206000000000131e+02
4.140000000000000000e+02,1.736155400000000100e+02
4.150000000000000000e+02,1.739098999999999933e+02
4.160000000000000000e+02,1.742036300000000040e+02
4.170000000000000000e+02,1.744967699999999979e+02
4.180000000000000000e+02,1.747892899999999941e+02
4.190000000000000000e+02,1.750812099999999987e+02
4.200000000000000000e+02,1.753725300000000118e+02
4.210000000000000000e+02,1.756632400000000018e+02
4.220000000000000000e+02,1.759533500000000004e+02
4.230000000000000000e+02,1.762428600000000074e+02
4.240000000000000000e+02,1.765317699999999945e+02
4.250000000000000000e+02,1.768200699999999870e+02
4.260000000000000000e+02,1.771077899999999943e+02
4.270000000000000000e+02,1.773949000000000069e+02
4.280000000000000000e+02,1.776813999999999965e+02
4.290000000000000000e+02,1.779673200000000008e+02
4.300000000000000000e+02,1.782526400000000137e+02
4.310000000000000000e+02,1.785373500000000035e+02
4.320000000000000000e+02,1.788214700000000050e+02
4.330000000000000000e+02,1.791050099999999929e+02
4.340000000000000000e+02,1.793879399999999862e+02
4.350000000000000000e+02,1.796702899999999943e+02
4.360000000000000000e+02,1.799520300000000077e+02
4.370000000000000000e+02,1.802331800000000044e+02
4.380000000000000000e+02,1.805137599999999907e+02
4.390000000000000000e+02,1.807937300000000107e+02
4.400000000000000000e+02,1.810731199999999887e+02
4.410000000000000000e+02,1.813519100000000037e+02
4.420000000000000000e+02,1.816301300000000083e+02
4.430000000000000000e+02,1.819077499999999930e+02
4.440000000000000000e+02,1.821847799999999893e+02
4.450000000000000000e+02,1.824612300000000005e+02
4.460000000000000000e+02,1.827370899999999949e+02
4.470000000000000000e+02,1.830123700000000042e+02
4.480000000000000000e+02,1.832870599999999968e+02
4.490000000000000000e+02,1.835611700000000042e+02
4.500000000000000000e+02,1.838346999999999980e+02
4.510000000000000000e+02,1.841076500000000067e+02
4.520000000000000000e+02,1.843799999999999955e+02
4.530000000000000000e+02,1.846517900000000054e+02
4.540000000000000000e+02,1.849230000000000018e+02
4.550000000000000000e+02,1.851936300000000131e+02
4.560000000000000000e+02,1.854636800000000108e+02
4.570000000000000000e+02,1.857331499999999949e+02
4.580000000000000000e+02,1.860020399999999938e+02
4.590000000000000000e+02,1.862703700000000140e+02
4.600000000000000000e+02,1.865381199999999922e+02
4.610000000000000000e+02,1.868052800000000104e+02
4.620000000000000000e+02,1.870718799999999931e+02
4.630000000000000000e+02,1.873379099999999937e+02
4.640000000000000000e+02,1.876033600000000092e+02
4.650000000000000000e+02,1.878682599999999923e+02
4.660000000000000000e+02,1.881325699999999870e+02
4.670000000000000000e+02,1.883962999999999965e+02
4.680000000000000000e+02,1.886594800000000021e+02
4.690000000000000000e+02,1.889220899999999972e+02
4.700000000000000000e+02,1.891841300000000103e+02
4.710000000000000000e+02,1.894456000000000131e+02
4.720000000000000000e+02,1.897065100000000086e+02
4.730000000000000000e+02,1.899668599999999969e+02
4.740000000000000000e+02,1.902266400000000033e+02
4.750000000000000000e+02,1.904858600000000024e+02
4.760000000000000000e+02,1.907445099999999911e+02
4.770000000000000000e+02,1.910025899999999979e+02
4.780000000000000000e+02,1.912601300000000037e+02
4.790000000000000000e+02,1.915170899999999961e+02
4.800000000000000000e+02,1.917735000000000127e+02
4.810000000000000000e+02,1.920293599999999969e+02
4.820000000000000000e+02,1.922846499999999992e+02
4.830000000000000000e+02,1.925393799999999942e+02
4.840000000000000000e+02,1.927935600000000136e+02
4.850000000000000000e+02,1.930472000000000037e+02
4.860000000000000000e+02,1.933002600000000086e+02
4.870000000000000000e+02,1.935527800000000127e+02
4.880000000000000000e+02,1.938047500000000127e+02
4.890000000000000000e+02,1.940561700000000087e+02
4.900000000000000000e+02,1.943070199999999943e+02
4.910000000000000000e+02,1.945573300000000074e+02
4.920000000000000000e+02,1.948070800000000133e+02
4.930000000000000000e+02,1.950562999999999931e+02
4.940000000000000000e+02,1.953049599999999941e+02
4.950000000000000000e+02,1.955530899999999974e+02
4.960000000000000000e+02,1.958006399999999871e+02
4.970000000000000000e+02,1.960476700000000108e+02
4.980000000000000000e+02,1.962941399999999987e+02
4.990000000000000000e+02,1.965400699999999858e+02
5.000000000000000000e+02,1.967854600000000005e+02
5.010000000000000000e+02,1.970303199999999890e+02
5.020000000000000000e+02,1.972746300000000019e+02
5.030000000000000000e+02,1.975183900000000108e+02
5.040000000000000000e+02,1.977615999999999872e+02
5.050000000000000000e+02,1.980042899999999975e+02
5.060000000000000000e+02,1.982464300000000037e+02
5.070000000000000000e+02,1.984880400000000122e+02
5.080000000000000000e+02,1.987291099999999915e+02
5.090000000000000000e+02,1.989696399999999983e+02
5.100000000000000000e+02,1.992096400000000074e+02
5.110000000000000000e+02,1.994491099999999904e+02
5.120000000000000000e+02,1.996880299999999977e+02
5.130000000000000000e+02,1.999264400000000137e+02
5.140000000000000000e+02,2.001642899999999941e+02
5.150000000000000000e+02,2.004016300000000115e+02
5.160000000000000000e+02,2.006384299999999996e+02
5.170000000000000000e+02,2.008746899999999869e+02
5.180000000000000000e+02,2.011104400000000112e+02
5.190000000000000000e+02,2.013456600000000094e+02
5.200000000000000000e+02,2.015803400000000067e+02
5.210000000000000000e+02,2.018144800000000032e+02
5.220000000000000000e+02,2.020481299999999862e+02
5.230000000000000000e+02,2.022812299999999937e+02
5.240000000000000000e+02,2.025138100000000065e+02
5.250000000000000000e+02,2.027458799999999997e+02
5.260000000000000000e+02,2.029773999999999887e+02
5.270000000000000000e+02,2.032084199999999896e+02
5.280000000000000000e+02,2.034389199999999960e+02
5.290000000000000000e+02,2.036688800000000015e+02
5.300000000000000000e+02,2.038983499999999935e+02
5.310000000000000000e+02,2.041272700000000100e+02
5.320000000000000000e+02,2.043556800000000067e+02
5.330000000000000000e+02,2.045835899999999867e+02
5.340000000000000000e+02,2.048109599999999944e+02
5.350000000000000000e+02,2.050378300000000138e+02
5.360000000000000000e+02,2.052641800000000103e+02
5.370000000000000000e+02,2.054900199999999870e+02
5.380000000000000000e+02,2.057153299999999945e+02
5.390000000000000000e+02,2.059401400000000137e+02
5.400000000000000000e+02,2.061644400000000132e+02
5.410000000000000000e+02,2.063882299999999930e+02
5.420000000000000000e+02,2.066115000000000066e+02
5.430000000000000000e+02,2.068342600000000004e+02
5.440000000000000000e+02,2.070565200000000061e+02
5.450000000000000000e+02,2.072782699999999920e+02
5.460000000000000000e+02,2.074995099999999866e+02
5.470000000000000000e+02,2.077202499999999930e+02
5.480000000000000000e+02,2.079404800000000080e+02
5.490000000000000000e+02,2.081601900000000001e+02
5.500000000000000000e+02,2.083794100000000071e+02
5.510000000000000000e+02,2.085981099999999913e+02
5.520000000000000000e+02,2.088163299999999936e+02
5.530000000000000000e+02,2.090340400000000045e+02
5.540000000000000000e+02,2.092512399999999957e+02
5.550000000000000000e+02,2.094679600000000050e+02
5.560000000000000000e+02,2.096841599999999914e+02
5.570000000000000000e+02,2.098998599999999897e+02
5.580000000000000000e+02,2.101150700000000029e+02
5.590000000000000000e+02,2.103297699999999963e+02
5.600000000000000000e+02,2.105439900000000080e+02
5.610000000000000000e+02,2.107577100000000030e+02
5.620000000000000000e+02,2.109709300000000098e+02
5.630000000000000000e+02,2.111836500000000001e+02
5.640000000000000000e+02,2.113958700000000022e+02
5.650000000000000000e+02,2.116076199999999972e+02
5.660000000000000000e+02,2.118188600000000008e+02
5.670000000000000000e+02,2.120296199999999942e+02
5.680000000000000000e+02,2.122398799999999994e+02
5.690000000000000000e+02,2.124496499999999912e+02
5.700000000000000000e+02,2.126589400000000012e+02
5.710000000000000000e+02,2.128677199999999914e+02
5.720000000000000000e+02,2.130760300000000029e+02
5.730000000000000000e+02,2.132838399999999979e+02
5.740000000000000000e+02,2.134911800000000142e+02
5.750000000000000000e+02,2.136980299999999886e+02
5.760000000000000000e+02,2.139043700000000001e+02
5.770000000000000000e+02,2.141102400000000046e+02
5.780000000000000000e+02,2.143156400000000019e+02
5.790000000000000000e+02,2.145205400000000111e+02
5.800000000000000000e+02,2.147249600000000100e+02
5.810000000000000000e+02,2.149288899999999956e+02
5.820000000000000000e+02,2.151323500000000024e+02
5.830000000000000000e+02,2.153353299999999990e+02
5.840000000000000000e+02,2.155378300000000138e+02
5.850000000000000000e+02,2.157398399999999867e+02
5.860000000000000000e+02,2.159413800000000094e+02
5.870000000000000000e+02,2.161424399999999935e+02
5.880000000000000000e+02,2.163430199999999957e+02
5.890000000000000000e+02,2.165431199999999876e+02
5.900000000000000000e+02,2.167427500000000009e+02
5.910000000000000000e+02,2.169418900000000008e+02
5.920000000000000000e+02,2.171405799999999999e+02
5.930000000000000000e+02,2.173387800000000141e+02
5.940000000000000000e+02,2.175365099999999927e+02
5.950000000000000000e+02,2.177337599999999895e+02
5.960000000000000000e+02,2.179305400000000077e+02
5.970000000000000000e+02,2.181268599999999935e+02
5.980000000000000000e+02,2.183227100000000007e+02
5.990000000000000000e+02,2.185180699999999945e+02