# Time [s], Temperature [C]
1.000000000000000000e+00,2.500000000000000000e+01
2.000000000000000000e+00,2.500000000000000000e+01
3.000000000000000000e+00,2.500000000000000000e+01
4.000000000000000000e+00,2.500000000000000000e+01
5.000000000000000000e+00,2.500000000000000000e+01
6.000000000000000000e+00,2.500000400000000056e+01
7.000000000000000000e+00,2.500001299999999915e+01
8.000000000000000000e+00,2.500004799999999960e+01
9.000000000000000000e+00,2.500014300000000134e+01
1.000000000000000000e+01,2.500037400000000076e+01
1.100000000000000000e+01,2.500086599999999848e+01
1.200000000000000000e+01,2.500181399999999954e+01
1.300000000000000000e+01,2.500348899999999830e+01
1.400000000000000000e+01,2.500623699999999872e+01
1.500000000000000000e+01,2.501047700000000162e+01
1.600000000000000000e+01,2.501667600000000036e+01
1.700000000000000000e+01,2.502534500000000151e+01
1.800000000000000000e+01,2.503701600000000127e+01
1.900000000000000000e+01,2.505222499999999997e+01
2.000000000000000000e+01,2.507150299999999987e+01
2.100000000000000000e+01,2.509535199999999833e+01
2.200000000000000000e+01,2.512425400000000053e+01
2.300000000000000000e+01,2.515864900000000048e+01
2.400000000000000000e+01,2.519893599999999978e+01
2.500000000000000000e+01,2.524547600000000003e+01
2.600000000000000000e+01,2.529858199999999968e+01
2.700000000000000000e+01,2.535852399999999918e+01
2.800000000000000000e+01,2.542552900000000093e+01
2.900000000000000000e+01,2.549978600000000029e+01
3.000000000000000000e+01,2.558144400000000118e+01
3.100000000000000000e+01,2.567061400000000049e+01
3.200000000000000000e+01,2.576738200000000134e+01
3.300000000000000000e+01,2.587179400000000129e+01
3.400000000000000000e+01,2.598387299999999911e+01
3.500000000000000000e+01,2.610361899999999835e+01
3.600000000000000000e+01,2.623100900000000024e+01
3.700000000000000000e+01,2.636599899999999863e+01
3.800000000000000000e+01,2.650852799999999831e+01
3.900000000000000000e+01,2.665851999999999933e+01
4.000000000000000000e+01,2.681588400000000050e+01
4.100000000000000000e+01,2.698052200000000056e+01
4.200000000000000000e+01,2.715232299999999910e+01
4.300000000000000000e+01,2.733116700000000066e+01
4.400000000000000000e+01,2.751692999999999856e+01
4.500000000000000000e+01,2.770947299999999913e+01
4.600000000000000000e+01,2.790866499999999917e+01
4.700000000000000000e+01,2.811436300000000088e+01
4.800000000000000000e+01,2.832642600000000144e+01
4.900000000000000000e+01,2.854470399999999941e+01
5.000000000000000000e+01,2.876905299999999954e+01
5.100000000000000000e+01,2.899932300000000041e+01
5.200000000000000000e+01,2.923536500000000160e+01
5.300000000000000000e+01,2.947703200000000123e+01
5.400000000000000000e+01,2.972417300000000040e+01
5.500000000000000000e+01,2.997664599999999879e+01
5.600000000000000000e+01,3.023430799999999863e+01
5.700000000000000000e+01,3.049700400000000045e+01
5.800000000000000000e+01,3.076459900000000047e+01
5.900000000000000000e+01,3.103695499999999896e+01
6.000000000000000000e+01,3.131392699999999962e+01
6.100000000000000000e+01,3.159538300000000177e+01
6.200000000000000000e+01,3.188118700000000061e+01
6.300000000000000000e+01,3.217120700000000255e+01
6.400000000000000000e+01,3.246531699999999887e+01
6.500000000000000000e+01,3.276339000000000112e+01
6.600000000000000000e+01,3.306530399999999759e+01
6.700000000000000000e+01,3.337093000000000131e+01
6.800000000000000000e+01,3.368016399999999777e+01
6.900000000000000000e+01,3.399288200000000160e+01
7.000000000000000000e+01,3.430896800000000013e+01
7.100000000000000000e+01,3.462831500000000062e+01
7.200000000000000000e+01,3.495081299999999658e+01
7.300000000000000000e+01,3.527636700000000047e+01
7.400000000000000000e+01,3.560486600000000124e+01
7.500000000000000000e+01,3.593621100000000013e+01
7.600000000000000000e+01,3.627030899999999747e+01
7.700000000000000000e+01,3.660705600000000004e+01
7.800000000000000000e+01,3.694636500000000012e+01
7.900000000000000000e+01,3.728815099999999916e+01
8.000000000000000000e+01,3.763232399999999700e+01
8.100000000000000000e+01,3.797879400000000061e+01
8.200000000000000000e+01,3.832748000000000133e+01
8.300000000000000000e+01,3.867830699999999666e+01
8.400000000000000000e+01,3.903119300000000180e+01
8.500000000000000000e+01,3.938605900000000304e+01
8.600000000000000000e+01,3.974283599999999694e+01
8.700000000000000000e+01,4.010145200000000187e+01
8.800000000000000000e+01,4.046183400000000319e+01
8.900000000000000000e+01,4.082391400000000203e+01
9.000000000000000000e+01,4.118762999999999863e+01
9.100000000000000000e+01,4.155290999999999713e+01
9.200000000000000000e+01,4.191969300000000231e+01
9.300000000000000000e+01,4.228792200000000179e+01
9.400000000000000000e+01,4.265753899999999987e+01
9.500000000000000000e+01,4.302848099999999931e+01
9.600000000000000000e+01,4.340070000000000050e+01
9.700000000000000000e+01,4.377414300000000225e+01
9.800000000000000000e+01,4.414874999999999972e+01
9.900000000000000000e+01,4.452447500000000247e+01
1.000000000000000000e+02,4.490126399999999762e+01
1.010000000000000000e+02,4.527906800000000231e+01
1.020000000000000000e+02,4.565784500000000179e+01
1.030000000000000000e+02,4.603754399999999691e+01
1.040000000000000000e+02,4.641812900000000042e+01
1.050000000000000000e+02,4.679955300000000307e+01
1.060000000000000000e+02,4.718177399999999722e+01
1.070000000000000000e+02,4.756475100000000111e+01
1.080000000000000000e+02,4.794844799999999907e+01
1.090000000000000000e+02,4.833282499999999970e+01
1.100000000000000000e+02,4.871784199999999743e+01
1.110000000000000000e+02,4.910346599999999739e+01
1.120000000000000000e+02,4.948966200000000271e+01
1.130000000000000000e+02,4.987640400000000085e+01
1.140000000000000000e+02,5.026364499999999680e+01
1.150000000000000000e+02,5.065136700000000047e+01
1.160000000000000000e+02,5.103952799999999712e+01
1.170000000000000000e+02,5.142809700000000106e+01
1.180000000000000000e+02,5.181705500000000342e+01
1.190000000000000000e+02,5.220637099999999720e+01
1.200000000000000000e+02,5.259601599999999877e+01
1.210000000000000000e+02,5.298596200000000067e+01
1.220000000000000000e+02,5.337618599999999702e+01
1.230000000000000000e+02,5.376665899999999709e+01
1.240000000000000000e+02,5.415736400000000117e+01
1.250000000000000000e+02,5.454826700000000272e+01
1.260000000000000000e+02,5.493935400000000158e+01
1.270000000000000000e+02,5.533060100000000148e+01
1.280000000000000000e+02,5.572198499999999655e+01
1.290000000000000000e+02,5.611348300000000222e+01
1.300000000000000000e+02,5.650508099999999700e+01
1.310000000000000000e+02,5.689675100000000185e+01
1.320000000000000000e+02,5.728848299999999938e+01
1.330000000000000000e+02,5.768025200000000297e+01
1.340000000000000000e+02,5.807204099999999869e+01
1.350000000000000000e+02,5.846383300000000105e+01
1.360000000000000000e+02,5.885560999999999865e+01
1.370000000000000000e+02,5.924736000000000047e+01
1.380000000000000000e+02,5.963906099999999810e+01
1.390000000000000000e+02,6.003070100000000053e+01
1.400000000000000000e+02,6.042226399999999842e+01
1.410000000000000000e+02,6.081373599999999868e+01
1.420000000000000000e+02,6.120510099999999909e+01
1.430000000000000000e+02,6.159634799999999899e+01
1.440000000000000000e+02,6.198746500000000026e+01
1.450000000000000000e+02,6.237843699999999814e+01
1.460000000000000000e+02,6.276924900000000207e+01
1.470000000000000000e+02,6.315989299999999673e+01
1.480000000000000000e+02,6.355035399999999868e+01
1.490000000000000000e+02,6.394062399999999968e+01
1.500000000000000000e+02,6.433069600000000321e+01
1.510000000000000000e+02,6.472055100000000039e+01
1.520000000000000000e+02,6.511017599999999561e+01
1.530000000000000000e+02,6.549956500000000403e+01
1.540000000000000000e+02,6.588871799999999723e+01
1.550000000000000000e+02,6.627761800000000392e+01
1.560000000000000000e+02,6.666625999999999408e+01
1.570000000000000000e+02,6.705462599999999895e+01
1.580000000000000000e+02,6.744271100000000274e+01
1.590000000000000000e+02,6.783050500000000227e+01
1.600000000000000000e+02,6.821801000000000670e+01
1.610000000000000000e+02,6.860520200000000557e+01
1.620000000000000000e+02,6.899208799999999542e+01
1.630000000000000000e+02,6.937865399999999738e+01
1.640000000000000000e+02,6.976489300000000071e+01
1.650000000000000000e+02,7.015080299999999625e+01
1.660000000000000000e+02,7.053636899999999343e+01
1.670000000000000000e+02,7.092159300000000144e+01
1.680000000000000000e+02,7.130645800000000634e+01
1.690000000000000000e+02,7.169097100000000466e+01
1.700000000000000000e+02,7.207511900000000082e+01
1.710000000000000000e+02,7.245889300000000333e+01
1.720000000000000000e+02,7.284229299999999796e+01
1.730000000000000000e+02,7.322531100000000492e+01
1.740000000000000000e+02,7.360794099999999673e+01
1.750000000000000000e+02,7.399018100000000686e+01
1.760000000000000000e+02,7.437203200000000436e+01
1.770000000000000000e+02,7.475347100000000466e+01
1.780000000000000000e+02,7.513451399999999580e+01
1.790000000000000000e+02,7.551514400000000649e+01
1.800000000000000000e+02,7.589535499999999502e+01
1.810000000000000000e+02,7.627514600000000655e+01
1.820000000000000000e+02,7.665451799999999594e+01
1.830000000000000000e+02,7.703346999999999412e+01
1.840000000000000000e+02,7.741198699999999633e+01
1.850000000000000000e+02,7.779007000000000005e+01
1.860000000000000000e+02,7.816772500000000434e+01
1.870000000000000000e+02,7.854493700000000445e+01
1.880000000000000000e+02,7.892170699999999783e+01
1.890000000000000000e+02,7.929802700000000470e+01
1.900000000000000000e+02,7.967389699999999664e+01
1.910000000000000000e+02,8.004931600000000458e+01
1.920000000000000000e+02,8.042427800000000104e+01
1.930000000000000000e+02,8.079878200000000277e+01
1.940000000000000000e+02,8.117282899999999302e+01
1.950000000000000000e+02,8.154640999999999451e+01
1.960000000000000000e+02,8.191952499999999304e+01
1.970000000000000000e+02,8.229216800000000376e+01
1.980000000000000000e+02,8.266434499999999730e+01
1.990000000000000000e+02,8.303604900000000555e+01
2.000000000000000000e+02,8.340727200000000607e+01
2.010000000000000000e+02,8.377803000000000111e+01
2.020000000000000000e+02,8.414830000000000609e+01
2.030000000000000000e+02,8.451809699999999737e+01
2.040000000000000000e+02,8.488740500000000111e+01
2.050000000000000000e+02,8.525623299999999460e+01
2.060000000000000000e+02,8.562457299999999805e+01
2.070000000000000000e+02,8.599243199999999376e+01
2.080000000000000000e+02,8.635979500000000542e+01
2.090000000000000000e+02,8.672666200000000458e+01
2.100000000000000000e+02,8.709304000000000201e+01
2.110000000000000000e+02,8.745892299999999864e+01
2.120000000000000000e+02,8.782430999999999699e+01
2.130000000000000000e+02,8.818920099999999707e+01
2.140000000000000000e+02,8.855359599999999887e+01
2.150000000000000000e+02,8.891749599999999987e+01
2.160000000000000000e+02,8.928089900000000512e+01
2.170000000000000000e+02,8.964379900000000134e+01
2.180000000000000000e+02,9.000619500000000528e+01
2.190000000000000000e+02,9.036808800000000019e+01
2.200000000000000000e+02,9.072946899999999459e+01
2.210000000000000000e+02,9.109034699999999418e+01
2.220000000000000000e+02,9.145072199999999896e+01
2.230000000000000000e+02,9.181058500000000322e+01
2.240000000000000000e+02,9.216994499999999846e+01
2.250000000000000000e+02,9.252880100000000141e+01
2.260000000000000000e+02,9.288714600000000132e+01
2.270000000000000000e+02,9.324497999999999820e+01
2.280000000000000000e+02,9.360230300000000625e+01
2.290000000000000000e+02,9.395910600000000557e+01
2.300000000000000000e+02,9.431540699999999333e+01
2.310000000000000000e+02,9.467118800000000078e+01
2.320000000000000000e+02,9.502645900000000267e+01
2.330000000000000000e+02,9.538121800000000405e+01
2.340000000000000000e+02,9.573546600000000240e+01
2.350000000000000000e+02,9.608919500000000369e+01
2.360000000000000000e+02,9.644241300000000194e+01
2.370000000000000000e+02,9.679511999999999716e+01
2.380000000000000000e+02,9.714730099999999879e+01
2.390000000000000000e+02,9.749896999999999991e+01
2.400000000000000000e+02,9.785012100000000146e+01
2.410000000000000000e+02,9.820075199999999427e+01
2.420000000000000000e+02,9.855086500000000171e+01
2.430000000000000000e+02,9.890046700000000612e+01
2.440000000000000000e+02,9.924954999999999927e+01
2.450000000000000000e+02,9.959811399999999537e+01
2.460000000000000000e+02,9.994616700000000264e+01
2.470000000000000000e+02,1.002936899999999980e+02
2.480000000000000000e+02,1.006406999999999954e+02
2.490000000000000000e+02,1.009871899999999982e+02
2.500000000000000000e+02,1.013331600000000066e+02
2.510000000000000000e+02,1.016786199999999951e+02
2.520000000000000000e+02,1.020235500000000002e+02
2.530000000000000000e+02,1.023679699999999997e+02
2.540000000000000000e+02,1.027118700000000047e+02
2.550000000000000000e+02,1.030552500000000009e+02
2.560000000000000000e+02,1.033980999999999995e+02
2.570000000000000000e+02,1.037404400000000066e+02
2.580000000000000000e+02,1.040822699999999941e+02
2.590000000000000000e+02,1.044235699999999980e+02
2.600000000000000000e+02,1.047643499999999932e+02
2.610000000000000000e+02,1.051046199999999970e+02
2.620000000000000000e+02,1.054443700000000064e+02
2.630000000000000000e+02,1.057835800000000006e+02
2.640000000000000000e+02,1.061222900000000067e+02
2.650000000000000000e+02,1.064604899999999930e+02
2.660000000000000000e+02,1.067981599999999958e+02
2.670000000000000000e+02,1.071353100000000040e+02
2.680000000000000000e+02,1.074719400000000036e+02
2.690000000000000000e+02,1.078080400000000054e+02
2.700000000000000000e+02,1.081436499999999938e+02
2.710000000000000000e+02,1.084787199999999956e+02
2.720000000000000000e+02,1.088132800000000060e+02
2.730000000000000000e+02,1.091473199999999935e+02
2.740000000000000000e+02,1.094808500000000038e+02
2.750000000000000000e+02,1.098138500000000022e+02
2.760000000000000000e+02,1.101463399999999950e+02
2.770000000000000000e+02,1.104783199999999965e+02
2.780000000000000000e+02,1.108097800000000035e+02
2.790000000000000000e+02,1.111407200000000017e+02
2.800000000000000000e+02,1.114711400000000054e+02
2.810000000000000000e+02,1.118010400000000004e+02
2.820000000000000000e+02,1.121304300000000040e+02
2.830000000000000000e+02,1.124593100000000021e+02
2.840000000000000000e+02,1.127876700000000056e+02
2.850000000000000000e+02,1.131155200000000036e+02
2.860000000000000000e+02,1.134428500000000071e+02
2.870000000000000000e+02,1.137696600000000018e+02
2.880000000000000000e+02,1.140959600000000052e+02
2.890000000000000000e+02,1.144217500000000030e+02
2.900000000000000000e+02,1.147470200000000062e+02
2.910000000000000000e+02,1.150717800000000040e+02
2.920000000000000000e+02,1.153960299999999961e+02
2.930000000000000000e+02,1.157197599999999937e+02
2.940000000000000000e+02,1.160429900000000032e+02
2.950000000000000000e+02,1.163657100000000071e+02
2.960000000000000000e+02,1.166878999999999991e+02
2.970000000000000000e+02,1.170095799999999997e+02
2.980000000000000000e+02,1.173307599999999979e+02
2.990000000000000000e+02,1.176514200000000017e+02
3.000000000000000000e+02,1.179715800000000030e+02
3.010000000000000000e+02,1.182912199999999956e+02
3.020000000000000000e+02,1.186103499999999968e+02
3.030000000000000000e+02,1.189289700000000067e+02
3.040000000000000000e+02,1.192470900000000000e+02
3.050000000000000000e+02,1.195647000000000020e+02
3.060000000000000000e+02,1.198817899999999952e+02
3.070000000000000000e+02,1.201983800000000002e+02
3.080000000000000000e+02,1.205144599999999997e+02
3.090000000000000000e+02,1.208300299999999936e+02
3.100000000000000000e+02,1.211450999999999993e+02
3.110000000000000000e+02,1.214596599999999995e+02
3.120000000000000000e+02,1.217737099999999941e+02
3.130000000000000000e+02,1.220872700000000037e+02
3.140000000000000000e+02,1.224003100000000046e+02
3.150000000000000000e+02,1.227128399999999999e+02
3.160000000000000000e+02,1.230248700000000071e+02
3.170000000000000000e+02,1.233363999999999976e+02
3.180000000000000000e+02,1.236474299999999999e+02
3.190000000000000000e+02,1.239579499999999967e+02
3.200000000000000000e+02,1.242679700000000054e+02
3.210000000000000000e+02,1.245774799999999942e+02
3.220000000000000000e+02,1.248864999999999981e+02
3.230000000000000000e+02,1.251950099999999964e+02
3.240000000000000000e+02,1.255030200000000065e+02
3.250000000000000000e+02,1.258105199999999968e+02
3.260000000000000000e+02,1.261175300000000021e+02
3.270000000000000000e+02,1.264240400000000051e+02
3.280000000000000000e+02,1.267300500000000056e+02
3.290000000000000000e+02,1.270355500000000006e+02
3.300000000000000000e+02,1.273405599999999964e+02
3.310000000000000000e+02,1.276450700000000040e+02
3.320000000000000000e+02,1.279490899999999982e+02
3.330000000000000000e+02,1.282526100000000042e+02
3.340000000000000000e+02,1.285556200000000047e+02
3.350000000000000000e+02,1.288581399999999917e+02
3.360000000000000000e+02,1.291601699999999937e+02
3.370000000000000000e+02,1.294617000000000075e+02
3.380000000000000000e+02,1.297627300000000048e+02
3.390000000000000000e+02,1.300632600000000139e+02
3.400000000000000000e+02,1.303633000000000095e+02
3.410000000000000000e+02,1.306628599999999949e+02
3.420000000000000000e+02,1.309619000000000142e+02
3.430000000000000000e+02,1.312604699999999980e+02
3.440000000000000000e+02,1.315585299999999904e+02
3.450000000000000000e+02,1.318561100000000010e+02
3.460000000000000000e+02,1.321531799999999919e+02
3.470000000000000000e+02,1.324497800000000041e+02
3.480000000000000000e+02,1.327458799999999997e+02
3.490000000000000000e+02,1.330414900000000102e+02
3.500000000000000000e+02,1.333366100000000074e+02
3.510000000000000000e+02,1.336312399999999911e+02
3.520000000000000000e+02,1.339253799999999899e+02
3.530000000000000000e+02,1.342190200000000004e+02
3.540000000000000000e+02,1.345121900000000039e+02
3.550000000000000000e+02,1.348048699999999940e+02
3.560000000000000000e+02,1.350970599999999990e+02
3.570000000000000000e+02,1.353887499999999875e+02
3.580000000000000000e+02,1.356799599999999941e+02
3.590000000000000000e+02,1.359706899999999905e+02
3.600000000000000000e+02,1.362609300000000019e+02
3.610000000000000000e+02,1.365506900000000030e+02
3.620000000000000000e+02,1.368399499999999875e+02
3.630000000000000000e+02,1.371287399999999934e+02
3.640000000000000000e+02,1.374170399999999859e+02
3.650000000000000000e+02,1.377048599999999965e+02
3.660000000000000000e+02,1.379921999999999969e+02
3.670000000000000000e+02,1.382790500000000122e+02
3.680000000000000000e+02,1.385654100000000142e+02
3.690000000000000000e+02,1.388513000000000090e+02
3.700000000000000000e+02,1.391366999999999905e+02
3.710000000000000000e+02,1.394216299999999933e+02
3.720000000000000000e+02,1.397060899999999890e+02
3.730000000000000000e+02,1.399900499999999965e+02
3.740000000000000000e+02,1.402735299999999938e+02
3.750000000000000000e+02,1.405565300000000093e+02
3.760000000000000000e+02,1.408390699999999924e+02
3.770000000000000000e+02,1.411211199999999906e+02
3.780000000000000000e+02,1.414026900000000069e+02
3.790000000000000000e+02,1.416837899999999877e+02
3.800000000000000000e+02,1.419644000000000119e+02
3.810000000000000000e+02,1.422445500000000038e+02
3.820000000000000000e+02,1.425242200000000139e+02
3.830000000000000000e+02,1.428034100000000137e+02
3.840000000000000000e+02,1.430821200000000033e+02
3.850000000000000000e+02,1.433603699999999890e+02
3.860000000000000000e+02,1.436381399999999928e+02
3.870000000000000000e+02,1.439154200000000117e+02
3.880000000000000000e+02,1.441922500000000014e+02
3.890000000000000000e+02,1.444686000000000092e+02
3.900000000000000000e+02,1.447444800000000100e+02
3.910000000000000000e+02,1.450198800000000006e+02
3.920000000000000000e+02,1.452948199999999872e+02
3.930000000000000000e+02,1.455692699999999888e+02
3.940000000000000000e+02,1.458432599999999866e+02
3.950000000000000000e+02,1.461167900000000088e+02
3.960000000000000000e+02,1.463898299999999892e+02
3.970000000000000000e+02,1.466624300000000005e+02
3.980000000000000000e+02,1.469345399999999984e+02
3.990000000000000000e+02,1.472061799999999891e+02
4.000000000000000000e+02,1.474773700000000076e+02
4.010000000000000000e+02,1.477480799999999874e+02
4.020000000000000000e+02,1.480183299999999917e+02
4.030000000000000000e+02,1.482880999999999858e+02
4.040000000000000000e+02,1.485574200000000076e+02
4.050000000000000000e+02,1.488262599999999907e+02
4.060000000000000000e+02,1.490946500000000015e+02
4.070000000000000000e+02,1.493625600000000020e+02
4.080000000000000000e+02,1.496300200000000018e+02
4.090000000000000000e+02,1.498969999999999914e+02
4.100000000000000000e+02,1.501635300000000086e+02
4.110000000000000000e+02,1.504295999999999935e+02
4.120000000000000000e+02,1.506952100000000030e+02
4.130000000000000000e+02,1.509603400000000022e+02
4.140000000000000000e+02,1.512250200000000007e+02
4.150000000000000000e+02,1.514892399999999952e+02
4.160000000000000000e+02,1.517530099999999891e+02
4.170000000000000000e+02,1.520163100000000043e+02
4.180000000000000000e+02,1.522791400000000124e+02
4.190000000000000000e+02,1.525415199999999913e+02
4.200000000000000000e+02,1.528034499999999980e+02
4.210000000000000000e+02,1.530649099999999976e+02
4.220000000000000000e+02,1.533259099999999933e+02
4.230000000000000000e+02,1.535864699999999914e+02
4.240000000000000000e+02,1.538465600000000109e+02
4.250000000000000000e+02,1.541062000000000012e+02
4.260000000000000000e+02,1.543653700000000129e+02
4.270000000000000000e+02,1.546240999999999985e+02
4.280000000000000000e+02,1.548823700000000088e+02
4.290000000000000000e+02,1.551401799999999866e+02
4.300000000000000000e+02,1.553975499999999954e+02
4.310000000000000000e+02,1.556544499999999971e+02
4.320000000000000000e+02,1.559109200000000044e+02
4.330000000000000000e+02,1.561669200000000046e+02
4.340000000000000000e+02,1.564224700000000041e+02
4.350000000000000000e+02,1.566775700000000029e+02
4.360000000000000000e+02,1.569322099999999978e+02
4.370000000000000000e+02,1.571863999999999919e+02
4.380000000000000000e+02,1.574401599999999917e+02
4.390000000000000000e+02,1.576934500000000128e+02
4.400000000000000000e+02,1.579462900000000047e+02
4.410000000000000000e+02,1.581986799999999960e+02
4.420000000000000000e+02,1.584506399999999928e+02
4.430000000000000000e+02,1.587021300000000110e+02
4.440000000000000000e+02,1.589531900000000064e+02
4.450000000000000000e+02,1.592038000000000011e+02
4.460000000000000000e+02,1.594539499999999919e+02
4.470000000000000000e+02,1.597036600000000135e+02
4.480000000000000000e+02,1.599529300000000092e+02
4.490000000000000000e+02,1.602017400000000009e+02
4.500000000000000000e+02,1.604501199999999983e+02
4.510000000000000000e+02,1.606980399999999918e+02
4.520000000000000000e+02,1.609455299999999909e+02
4.530000000000000000e+02,1.611925699999999892e+02
4.540000000000000000e+02,1.614391599999999869e+02
4.550000000000000000e+02,1.616853199999999902e+02
4.560000000000000000e+02,1.619310299999999927e+02
4.570000000000000000e+02,1.621762799999999913e+02
4.580000000000000000e+02,1.624211099999999988e+02
4.590000000000000000e+02,1.626655100000000118e+02
4.600000000000000000e+02,1.629094499999999925e+02
4.610000000000000000e+02,1.631529500000000041e+02
4.620000000000000000e+02,1.633960099999999898e+02
4.630000000000000000e+02,1.636386400000000094e+02
4.640000000000000000e+02,1.638808300000000031e+02
4.650000000000000000e+02,1.641225699999999961e+02
4.660000000000000000e+02,1.643638799999999947e+02
4.670000000000000000e+02,1.646047499999999957e+02
4.680000000000000000e+02,1.648451799999999992e+02
4.690000000000000000e+02,1.650851700000000051e+02
4.700000000000000000e+02,1.653247399999999914e+02
4.710000000000000000e+02,1.655638600000000054e+02
4.720000000000000000e+02,1.658025499999999965e+02
4.730000000000000000e+02,1.660407999999999902e+02
4.740000000000000000e+02,1.662786099999999863e+02
4.750000000000000000e+02,1.665159899999999880e+02
4.760000000000000000e+02,1.667529299999999921e+02
4.770000000000000000e+02,1.669894400000000019e+02
4.780000000000000000e+02,1.672255199999999888e+02
4.790000000000000000e+02,1.674611800000000130e+02
4.800000000000000000e+02,1.676964000000000112e+02
4.810000000000000000e+02,1.679311700000000087e+02
4.820000000000000000e+02,1.681655299999999897e+02
4.830000000000000000e+02,1.683994399999999985e+02
4.840000000000000000e+02,1.686329299999999876e+02
4.850000000000000000e+02,1.688659800000000075e+02
4.860000000000000000e+02,1.690986200000000110e+02
4.870000000000000000e+02,1.693308100000000138e+02
4.880000000000000000e+02,1.695625799999999970e+02
4.890000000000000000e+02,1.697939100000000110e+02
4.900000000000000000e+02,1.700248300000000086e+02
4.910000000000000000e+02,1.702553100000000086e+02
4.920000000000000000e+02,1.704853699999999890e+02
4.930000000000000000e+02,1.707150000000000034e+02
4.940000000000000000e+02,1.709441999999999950e+02
4.950000000000000000e+02,1.711729599999999891e+02
4.960000000000000000e+02,1.714013099999999952e+02
4.970000000000000000e+02,1.716292300000000068e+02
4.980000000000000000e+02,1.718567400000000021e+02
4.990000000000000000e+02,1.720837999999999965e+02
5.000000000000000000e+02,1.723104600000000062e+02
5.010000000000000000e+02,1.725366699999999867e+02
5.020000000000000000e+02,1.727624700000000075e+02
5.030000000000000000e+02,1.729878400000000056e+02
5.040000000000000000e+02,1.732127800000000093e+02
5.050000000000000000e+02,1.734373199999999997e+02
5.060000000000000000e+02,1.736614199999999926e+02
5.070000000000000000e+02,1.738851200000000006e+02
5.080000000000000000e+02,1.741083700000000078e+02
5.090000000000000000e+02,1.743312099999999987e+02
5.100000000000000000e+02,1.745536299999999983e+02
5.110000000000000000e+02,1.747756300000000067e+02
5.120000000000000000e+02,1.749972099999999955e+02
5.130000000000000000e+02,1.752183699999999931e+02
5.140000000000000000e+02,1.754390999999999963e+02
5.150000000000000000e+02,1.756594200000000114e+02
5.160000000000000000e+02,1.758793300000000102e+02
5.170000000000000000e+02,1.760988199999999892e+02
5.180000000000000000e+02,1.763178699999999992e+02
5.190000000000000000e+02,1.765365099999999927e+02
5.200000000000000000e+02,1.767547500000000014e+02
5.210000000000000000e+02,1.769725599999999872e+02
5.220000000000000000e+02,1.771899600000000135e+02
5.230000000000000000e+02,1.774069399999999916e+02
5.240000000000000000e+02,1.776234900000000039e+02
5.250000000000000000e+02,1.778396500000000060e+02
5.260000000000000000e+02,1.780553700000000106e+02
5.270000000000000000e+02,1.782706900000000019e+02
5.280000000000000000e+02,1.784856000000000051e+02
5.290000000000000000e+02,1.787000700000000109e+02
5.300000000000000000e+02,1.789141500000000065e+02
5.310000000000000000e+02,1.791278100000000109e+02
5.320000000000000000e+02,1.793410499999999956e+02
5.330000000000000000e+02,1.795538899999999956e+02
5.340000000000000000e+02,1.797663100000000043e+02
5.350000000000000000e+02,1.799783199999999965e+02
5.360000000000000000e+02,1.801899099999999976e+02
5.370000000000000000e+02,1.804010900000000106e+02
5.380000000000000000e+02,1.806118600000000072e+02
5.390000000000000000e+02,1.808222199999999873e+02
5.400000000000000000e+02,1.810321700000000078e+02
5.410000000000000000e+02,1.812417000000000087e+02
5.420000000000000000e+02,1.814508399999999995e+02
5.430000000000000000e+02,1.816595499999999959e+02
5.440000000000000000e+02,1.818678600000000074e+02
5.450000000000000000e+02,1.820757399999999961e+02
5.460000000000000000e+02,1.822832300000000032e+02
5.470000000000000000e+02,1.824903099999999938e+02
5.480000000000000000e+02,1.826969899999999996e+02
5.490000000000000000e+02,1.829032400000000109e+02
5.500000000000000000e+02,1.831091000000000122e+02
5.510000000000000000e+02,1.833145399999999938e+02
5.520000000000000000e+02,1.835195799999999906e+02
5.530000000000000000e+02,1.837242099999999994e+02
5.540000000000000000e+02,1.839284199999999885e+02
5.550000000000000000e+02,1.841322499999999991e+02
5.560000000000000000e+02,1.843356499999999869e+02
5.570000000000000000e+02,1.845386499999999899e+02
5.580000000000000000e+02,1.847412400000000048e+02
5.590000000000000000e+02,1.849434400000000096e+02
5.600000000000000000e+02,1.851452199999999948e+02
5.610000000000000000e+02,1.853465899999999920e+02
5.620000000000000000e+02,1.855475600000000043e+02
5.630000000000000000e+02,1.857481400000000065e+02
5.640000000000000000e+02,1.859482999999999890e+02
5.650000000000000000e+02,1.861480599999999868e+02
5.660000000000000000e+02,1.863474099999999964e+02
5.670000000000000000e+02,1.865463599999999929e+02
5.680000000000000000e+02,1.867449000000000012e+02
5.690000000000000000e+02,1.869430399999999963e+02
5.700000000000000000e+02,1.871407800000000066e+02
5.710000000000000000e+02,1.873381200000000035e+02
5.720000000000000000e+02,1.875350500000000125e+02
5.730000000000000000e+02,1.877315700000000049e+02
5.740000000000000000e+02,1.879276900000000126e+02
5.750000000000000000e+02,1.881234100000000069e+02
5.760000000000000000e+02,1.883187399999999911e+02
5.770000000000000000e+02,1.885136599999999873e+02
5.780000000000000000e+02,1.887081799999999987e+02
5.790000000000000000e+02,1.889022799999999904e+02
5.800000000000000000e+02,1.890959900000000005e+02
5.810000000000000000e+02,1.892893100000000004e+02
5.820000000000000000e+02,1.894822100000000091e+02
5.830000000000000000e+02,1.896747100000000046e+02
5.840000000000000000e+02,1.898668199999999899e+02
5.850000000000000000e+02,1.900585299999999904e+02
5.860000000000000000e+02,1.902498300000000029e+02
5.870000000000000000e+02,1.904407300000000021e+02
5.880000000000000000e+02,1.906312399999999911e+02
5.890000000000000000e+02,1.908213299999999890e+02
5.900000000000000000e+02,1.910110300000000052e+02
5.910000000000000000e+02,1.912003499999999860e+02
5.920000000000000000e+02,1.913892400000000009e+02
5.930000000000000000e+02,1.915777400000000057e+02
5.940000000000000000e+02,1.917658500000000004e+02
5.950000000000000000e+02,1.919535500000000070e+02
5.960000000000000000e+02,1.921408500000000004e+02
5.970000000000000000e+02,1.923277600000000120e+02
5.980000000000000000e+02,1.925142500000000041e+02
5.990000000000000000e+02,1.927003599999999892e+02