# Time [s], Mass [Kg]
1.000000000000000000e+00,1.000000000000000000e+00
2.000000000000000000e+00,1.000000000000000000e+00
3.000000000000000000e+00,1.000000000000000000e+00
4.000000000000000000e+00,1.000000000000000000e+00
5.000000000000000000e+00,1.000000000000000000e+00
6.000000000000000000e+00,9.999997600000000153e-01
7.000000000000000000e+00,9.999978499999999659e-01
8.000000000000000000e+00,9.999871299999999463e-01
9.000000000000000000e+00,9.999403999999999515e-01
1.000000000000000000e+01,9.997798799999999542e-01
1.100000000000000000e+01,9.993480399999999930e-01
1.200000000000000000e+01,9.984317999999999804e-01
1.300000000000000000e+01,9.969091399999999714e-01
1.400000000000000000e+01,9.948642300000000160e-01
1.500000000000000000e+01,9.924681800000000331e-01
1.600000000000000000e+01,9.898129100000000458e-01
1.700000000000000000e+01,9.870024899999999546e-01
1.800000000000000000e+01,9.841509499999999688e-01
1.900000000000000000e+01,9.812204199999999821e-01
2.000000000000000000e+01,9.783014100000000379e-01
2.100000000000000000e+01,9.754364500000000104e-01
2.200000000000000000e+01,9.725250600000000523e-01
2.300000000000000000e+01,9.695826199999999506e-01
2.400000000000000000e+01,9.666380300000000370e-01
2.500000000000000000e+01,9.636139900000000313e-01
2.600000000000000000e+01,9.605404100000000112e-01
2.700000000000000000e+01,9.575036199999999997e-01
2.800000000000000000e+01,9.544718899999999895e-01
2.900000000000000000e+01,9.514637000000000233e-01
3.000000000000000000e+01,9.485169599999999646e-01
3.100000000000000000e+01,9.456058699999999595e-01
3.200000000000000000e+01,9.427111700000000427e-01
3.300000000000000000e+01,9.398230300000000037e-01
3.400000000000000000e+01,9.369176599999999855e-01
3.500000000000000000e+01,9.339844000000000479e-01
3.600000000000000000e+01,9.310317599999999860e-01
3.700000000000000000e+01,9.280729300000000181e-01
3.800000000000000000e+01,9.242066100000000395e-01
3.900000000000000000e+01,9.208489699999999889e-01
4.000000000000000000e+01,9.180565499999999712e-01
4.100000000000000000e+01,9.150882999999999656e-01
4.200000000000000000e+01,9.122380599999999617e-01
4.300000000000000000e+01,9.093614800000000553e-01
4.400000000000000000e+01,9.064794800000000041e-01
4.500000000000000000e+01,9.036099899999999741e-01
4.600000000000000000e+01,9.007270899999999525e-01
4.700000000000000000e+01,8.978793600000000152e-01
4.800000000000000000e+01,8.950405700000000353e-01
4.900000000000000000e+01,8.922460100000000338e-01
5.000000000000000000e+01,8.894713499999999939e-01
5.100000000000000000e+01,8.867296599999999751e-01
5.200000000000000000e+01,8.839998799999999601e-01
5.300000000000000000e+01,8.812788099999999680e-01
5.400000000000000000e+01,8.785529100000000202e-01
5.500000000000000000e+01,8.758200400000000219e-01
5.600000000000000000e+01,8.730799599999999883e-01
5.700000000000000000e+01,8.703364700000000287e-01
5.800000000000000000e+01,8.675981200000000282e-01
5.900000000000000000e+01,8.648708499999999688e-01
6.000000000000000000e+01,8.621620500000000131e-01
6.100000000000000000e+01,8.594747200000000253e-01
6.200000000000000000e+01,8.568080700000000327e-01
6.300000000000000000e+01,8.541586399999999690e-01
6.400000000000000000e+01,8.515198800000000068e-01
6.500000000000000000e+01,8.485717200000000293e-01
6.600000000000000000e+01,8.458175700000000186e-01
6.700000000000000000e+01,8.431395900000000498e-01
6.800000000000000000e+01,8.404906399999999556e-01
6.900000000000000000e+01,8.378744099999999584e-01
7.000000000000000000e+01,8.352787499999999588e-01
7.100000000000000000e+01,8.327009100000000164e-01
7.200000000000000000e+01,8.301349900000000170e-01
7.300000000000000000e+01,8.275759799999999888e-01
7.400000000000000000e+01,8.250187599999999621e-01
7.500000000000000000e+01,8.224573099999999970e-01
7.600000000000000000e+01,8.198882299999999956e-01
7.700000000000000000e+01,8.173089599999999733e-01
7.800000000000000000e+01,8.147193200000000246e-01
7.900000000000000000e+01,8.121201999999999588e-01
8.000000000000000000e+01,8.095154199999999856e-01
8.100000000000000000e+01,8.069075300000000395e-01
8.200000000000000000e+01,8.042993499999999685e-01
8.300000000000000000e+01,8.016937400000000435e-01
8.400000000000000000e+01,7.990914599999999757e-01
8.500000000000000000e+01,7.964924599999999577e-01
8.600000000000000000e+01,7.938952999999999705e-01
8.700000000000000000e+01,7.912974999999999870e-01
8.800000000000000000e+01,7.886965299999999512e-01
8.900000000000000000e+01,7.860894200000000387e-01
9.000000000000000000e+01,7.834743299999999966e-01
9.100000000000000000e+01,7.808503500000000264e-01
9.200000000000000000e+01,7.782170800000000055e-01
9.300000000000000000e+01,7.753135599999999572e-01
9.400000000000000000e+01,7.725554700000000219e-01
9.500000000000000000e+01,7.698708199999999557e-01
9.600000000000000000e+01,7.671998700000000060e-01
9.700000000000000000e+01,7.645399000000000500e-01
9.800000000000000000e+01,7.618734200000000234e-01
9.900000000000000000e+01,7.591963999999999935e-01
1.000000000000000000e+02,7.565047099999999691e-01
1.010000000000000000e+02,7.537964600000000015e-01
1.020000000000000000e+02,7.510718699999999748e-01
1.030000000000000000e+02,7.483316700000000044e-01
1.040000000000000000e+02,7.455766799999999916e-01
1.050000000000000000e+02,7.428081600000000506e-01
1.060000000000000000e+02,7.400265299999999602e-01
1.070000000000000000e+02,7.372316700000000056e-01
1.080000000000000000e+02,7.344230999999999954e-01
1.090000000000000000e+02,7.315987900000000543e-01
1.100000000000000000e+02,7.287578000000000111e-01
1.110000000000000000e+02,7.258974900000000341e-01
1.120000000000000000e+02,7.230161999999999978e-01
1.130000000000000000e+02,7.201119700000000456e-01
1.140000000000000000e+02,7.171832900000000288e-01
1.150000000000000000e+02,7.142290500000000320e-01
1.160000000000000000e+02,7.112480399999999703e-01
1.170000000000000000e+02,7.082400899999999888e-01
1.180000000000000000e+02,7.052037700000000076e-01
1.190000000000000000e+02,7.021389599999999787e-01
1.200000000000000000e+02,6.988537299999999508e-01
1.210000000000000000e+02,6.956324000000000396e-01
1.220000000000000000e+02,6.924253700000000400e-01
1.230000000000000000e+02,6.892018300000000153e-01
1.240000000000000000e+02,6.859580899999999648e-01
1.250000000000000000e+02,6.826866900000000404e-01
1.260000000000000000e+02,6.793868499999999866e-01
1.270000000000000000e+02,6.760563899999999515e-01
1.280000000000000000e+02,6.726944999999999730e-01
1.290000000000000000e+02,6.693003199999999486e-01
1.300000000000000000e+02,6.658734099999999989e-01
1.310000000000000000e+02,6.624128200000000133e-01
1.320000000000000000e+02,6.589180799999999616e-01
1.330000000000000000e+02,6.553896099999999558e-01
1.340000000000000000e+02,6.518275700000000228e-01
1.350000000000000000e+02,6.482332899999999620e-01
1.360000000000000000e+02,6.446081399999999961e-01
1.370000000000000000e+02,6.409544299999999639e-01
1.380000000000000000e+02,6.372749800000000464e-01
1.390000000000000000e+02,6.335725199999999724e-01
1.400000000000000000e+02,6.298500900000000291e-01
1.410000000000000000e+02,6.259539699999999707e-01
1.420000000000000000e+02,6.221132299999999615e-01
1.430000000000000000e+02,6.182948900000000414e-01
1.440000000000000000e+02,6.144853200000000015e-01
1.450000000000000000e+02,6.106840999999999520e-01
1.460000000000000000e+02,6.068892500000000467e-01
1.470000000000000000e+02,6.031022099999999719e-01
1.480000000000000000e+02,5.993235099999999482e-01
1.490000000000000000e+02,5.955544699999999469e-01
1.500000000000000000e+02,5.917955599999999983e-01
1.510000000000000000e+02,5.880476799999999615e-01
1.520000000000000000e+02,5.843112499999999487e-01
1.530000000000000000e+02,5.805868499999999877e-01
1.540000000000000000e+02,5.768750900000000348e-01
1.550000000000000000e+02,5.731763199999999614e-01
1.560000000000000000e+02,5.694910899999999776e-01
1.570000000000000000e+02,5.658201000000000480e-01
1.580000000000000000e+02,5.621640700000000157e-01
1.590000000000000000e+02,5.585237699999999750e-01
1.600000000000000000e+02,5.547713600000000467e-01
1.610000000000000000e+02,5.510869000000000462e-01
1.620000000000000000e+02,5.474449999999999594e-01
1.630000000000000000e+02,5.438354600000000483e-01
1.640000000000000000e+02,5.402554899999999494e-01
1.650000000000000000e+02,5.367026299999999583e-01
1.660000000000000000e+02,5.331759499999999541e-01
1.670000000000000000e+02,5.296748900000000093e-01
1.680000000000000000e+02,5.261990399999999513e-01
1.690000000000000000e+02,5.227481099999999881e-01
1.700000000000000000e+02,5.193223999999999618e-01
1.710000000000000000e+02,5.159224900000000114e-01
1.720000000000000000e+02,5.125487399999999472e-01
1.730000000000000000e+02,5.092024200000000445e-01
1.740000000000000000e+02,5.058848900000000315e-01
1.750000000000000000e+02,5.025981099999999868e-01
1.760000000000000000e+02,4.993442300000000000e-01
1.770000000000000000e+02,4.961253400000000258e-01
1.780000000000000000e+02,4.929448399999999952e-01
1.790000000000000000e+02,4.898058499999999871e-01
1.800000000000000000e+02,4.867118899999999804e-01
1.810000000000000000e+02,4.836673400000000012e-01
1.820000000000000000e+02,4.806148100000000034e-01
1.830000000000000000e+02,4.776408100000000267e-01
1.840000000000000000e+02,4.747513500000000164e-01
1.850000000000000000e+02,4.719477300000000097e-01
1.860000000000000000e+02,4.692354799999999826e-01
1.870000000000000000e+02,4.666229499999999808e-01
1.880000000000000000e+02,4.641211599999999771e-01
1.890000000000000000e+02,4.617436799999999897e-01
1.900000000000000000e+02,4.595065700000000031e-01
1.910000000000000000e+02,4.574286900000000267e-01
1.920000000000000000e+02,4.555309399999999953e-01
1.930000000000000000e+02,4.538367999999999847e-01
1.940000000000000000e+02,4.523716899999999930e-01
1.950000000000000000e+02,4.511614099999999850e-01
1.960000000000000000e+02,4.502282100000000176e-01
1.970000000000000000e+02,4.495796599999999921e-01
1.980000000000000000e+02,4.491913599999999840e-01
1.990000000000000000e+02,4.490008999999999806e-01
2.000000000000000000e+02,4.489272200000000157e-01
2.010000000000000000e+02,4.489150599999999769e-01
2.020000000000000000e+02,4.489150599999999769e-01
2.030000000000000000e+02,4.489150599999999769e-01
2.040000000000000000e+02,4.489150599999999769e-01
2.050000000000000000e+02,4.489150599999999769e-01
2.060000000000000000e+02,4.489150599999999769e-01
2.070000000000000000e+02,4.489150599999999769e-01
2.080000000000000000e+02,4.489150599999999769e-01
2.090000000000000000e+02,4.489150599999999769e-01
2.100000000000000000e+02,4.489150599999999769e-01
2.110000000000000000e+02,4.489150599999999769e-01
2.120000000000000000e+02,4.489150599999999769e-01
2.130000000000000000e+02,4.489150599999999769e-01
2.140000000000000000e+02,4.489150599999999769e-01
2.150000000000000000e+02,4.489150599999999769e-01
2.160000000000000000e+02,4.489150599999999769e-01
2.170000000000000000e+02,4.489150599999999769e-01
2.180000000000000000e+02,4.489150599999999769e-01
2.190000000000000000e+02,4.489150599999999769e-01
2.200000000000000000e+02,4.489150599999999769e-01
2.210000000000000000e+02,4.489150599999999769e-01
2.220000000000000000e+02,4.489150599999999769e-01
2.230000000000000000e+02,4.489150599999999769e-01
2.240000000000000000e+02,4.489150599999999769e-01
2.250000000000000000e+02,4.489150599999999769e-01
2.260000000000000000e+02,4.489150599999999769e-01
2.270000000000000000e+02,4.489150599999999769e-01
2.280000000000000000e+02,4.489150599999999769e-01
2.290000000000000000e+02,4.489150599999999769e-01
2.300000000000000000e+02,4.489150599999999769e-01
2.310000000000000000e+02,4.489150599999999769e-01
2.320000000000000000e+02,4.489150599999999769e-01
2.330000000000000000e+02,4.489150599999999769e-01
2.340000000000000000e+02,4.489150599999999769e-01
2.350000000000000000e+02,4.489150599999999769e-01
2.360000000000000000e+02,4.489150599999999769e-01
2.370000000000000000e+02,4.489150599999999769e-01
2.380000000000000000e+02,4.489150599999999769e-01
2.390000000000000000e+02,4.489150599999999769e-01
2.400000000000000000e+02,4.489150599999999769e-01
2.410000000000000000e+02,4.489150599999999769e-01
2.420000000000000000e+02,4.489150599999999769e-01
2.430000000000000000e+02,4.489150599999999769e-01
2.440000000000000000e+02,4.489150599999999769e-01
2.450000000000000000e+02,4.489150599999999769e-01
2.460000000000000000e+02,4.489150599999999769e-01
2.470000000000000000e+02,4.489150599999999769e-01
2.480000000000000000e+02,4.489150599999999769e-01
2.490000000000000000e+02,4.489150599999999769e-01
2.500000000000000000e+02,4.489150599999999769e-01
2.510000000000000000e+02,4.489150599999999769e-01
2.520000000000000000e+02,4.489150599999999769e-01
2.530000000000000000e+02,4.489150599999999769e-01
2.540000000000000000e+02,4.489150599999999769e-01
2.550000000000000000e+02,4.489150599999999769e-01
2.560000000000000000e+02,4.489150599999999769e-01
2.570000000000000000e+02,4.489150599999999769e-01
2.580000000000000000e+02,4.489150599999999769e-01
2.590000000000000000e+02,4.489150599999999769e-01
2.600000000000000000e+02,4.489150599999999769e-01
2.610000000000000000e+02,4.489150599999999769e-01
2.620000000000000000e+02,4.489150599999999769e-01
2.630000000000000000e+02,4.489150599999999769e-01
2.640000000000000000e+02,4.489150599999999769e-01
2.650000000000000000e+02,4.489150599999999769e-01
2.660000000000000000e+02,4.489150599999999769e-01
2.670000000000000000e+02,4.489150599999999769e-01
2.680000000000000000e+02,4.489150599999999769e-01
2.690000000000000000e+02,4.489150599999999769e-01
2.700000000000000000e+02,4.489150599999999769e-01
2.710000000000000000e+02,4.489150599999999769e-01
2.720000000000000000e+02,4.489150599999999769e-01
2.730000000000000000e+02,4.489150599999999769e-01
2.740000000000000000e+02,4.489150599999999769e-01
2.750000000000000000e+02,4.489150599999999769e-01
2.760000000000000000e+02,4.489150599999999769e-01
2.770000000000000000e+02,4.489150599999999769e-01
2.780000000000000000e+02,4.489150599999999769e-01
2.790000000000000000e+02,4.489150599999999769e-01
2.800000000000000000e+02,4.489150599999999769e-01
2.810000000000000000e+02,4.489150599999999769e-01
2.820000000000000000e+02,4.489150599999999769e-01
2.830000000000000000e+02,4.489150599999999769e-01
2.840000000000000000e+02,4.489150599999999769e-01
2.850000000000000000e+02,4.489150599999999769e-01
2.860000000000000000e+02,4.489150599999999769e-01
2.870000000000000000e+02,4.489150599999999769e-01
2.880000000000000000e+02,4.489150599999999769e-01
2.890000000000000000e+02,4.489150599999999769e-01
2.900000000000000000e+02,4.489150599999999769e-01
2.910000000000000000e+02,4.489150599999999769e-01
2.920000000000000000e+02,4.489150599999999769e-01
2.930000000000000000e+02,4.489150599999999769e-01
2.940000000000000000e+02,4.489150599999999769e-01
2.950000000000000000e+02,4.489150599999999769e-01
2.960000000000000000e+02,4.489150599999999769e-01
2.970000000000000000e+02,4.489150599999999769e-01
2.980000000000000000e+02,4.489150599999999769e-01
2.990000000000000000e+02,4.489150599999999769e-01
3.000000000000000000e+02,4.489150599999999769e-01
3.010000000000000000e+02,4.489150599999999769e-01
3.020000000000000000e+02,4.489150599999999769e-01
3.030000000000000000e+02,4.489150599999999769e-01
3.040000000000000000e+02,4.489150599999999769e-01
3.050000000000000000e+02,4.489150599999999769e-01
3.060000000000000000e+02,4.489150599999999769e-01
3.070000000000000000e+02,4.489150599999999769e-01
3.080000000000000000e+02,4.489150599999999769e-01
3.090000000000000000e+02,4.489150599999999769e-01
3.100000000000000000e+02,4.489150599999999769e-01
3.110000000000000000e+02,4.489150599999999769e-01
3.120000000000000000e+02,4.489150599999999769e-01
3.130000000000000000e+02,4.489150599999999769e-01
3.140000000000000000e+02,4.489150599999999769e-01
3.150000000000000000e+02,4.489150599999999769e-01
3.160000000000000000e+02,4.489150599999999769e-01
3.170000000000000000e+02,4.489150599999999769e-01
3.180000000000000000e+02,4.489150599999999769e-01
3.190000000000000000e+02,4.489150599999999769e-01
3.200000000000000000e+02,4.489150599999999769e-01
3.210000000000000000e+02,4.489150599999999769e-01
3.220000000000000000e+02,4.489150599999999769e-01
3.230000000000000000e+02,4.489150599999999769e-01
3.240000000000000000e+02,4.489150599999999769e-01
3.250000000000000000e+02,4.489150599999999769e-01
3.260000000000000000e+02,4.489150599999999769e-01
3.270000000000000000e+02,4.489150599999999769e-01
3.280000000000000000e+02,4.489150599999999769e-01
3.290000000000000000e+02,4.489150599999999769e-01
3.300000000000000000e+02,4.489150599999999769e-01
3.310000000000000000e+02,4.489150599999999769e-01
3.320000000000000000e+02,4.489150599999999769e-01
3.330000000000000000e+02,4.489150599999999769e-01
3.340000000000000000e+02,4.489150599999999769e-01
3.350000000000000000e+02,4.489150599999999769e-01
3.360000000000000000e+02,4.489150599999999769e-01
3.370000000000000000e+02,4.489150599999999769e-01
3.380000000000000000e+02,4.489150599999999769e-01
3.390000000000000000e+02,4.489150599999999769e-01
3.400000000000000000e+02,4.489150599999999769e-01
3.410000000000000000e+02,4.489150599999999769e-01
3.420000000000000000e+02,4.489150599999999769e-01
3.430000000000000000e+02,4.489150599999999769e-01
3.440000000000000000e+02,4.489150599999999769e-01
3.450000000000000000e+02,4.489150599999999769e-01
3.460000000000000000e+02,4.489150599999999769e-01
3.470000000000000000e+02,4.489150599999999769e-01
3.480000000000000000e+02,4.489150599999999769e-01
3.490000000000000000e+02,4.489150599999999769e-01
3.500000000000000000e+02,4.489150599999999769e-01
3.510000000000000000e+02,4.489150599999999769e-01
3.520000000000000000e+02,4.489150599999999769e-01
3.530000000000000000e+02,4.489150599999999769e-01
3.540000000000000000e+02,4.489150599999999769e-01
3.550000000000000000e+02,4.489150599999999769e-01
3.560000000000000000e+02,4.489150599999999769e-01
3.570000000000000000e+02,4.489150599999999769e-01
3.580000000000000000e+02,4.489150599999999769e-01
3.590000000000000000e+02,4.489150599999999769e-01
3.600000000000000000e+02,4.489150599999999769e-01
3.610000000000000000e+02,4.489150599999999769e-01
3.620000000000000000e+02,4.489150599999999769e-01
3.630000000000000000e+02,4.489150599999999769e-01
3.640000000000000000e+02,4.489150599999999769e-01
3.650000000000000000e+02,4.489150599999999769e-01
3.660000000000000000e+02,4.489150599999999769e-01
3.670000000000000000e+02,4.489150599999999769e-01
3.680000000000000000e+02,4.489150599999999769e-01
3.690000000000000000e+02,4.489150599999999769e-01
3.700000000000000000e+02,4.489150599999999769e-01
3.710000000000000000e+02,4.489150599999999769e-01
3.720000000000000000e+02,4.489150599999999769e-01
3.730000000000000000e+02,4.489150599999999769e-01
3.740000000000000000e+02,4.489150599999999769e-01
3.750000000000000000e+02,4.489150599999999769e-01
3.760000000000000000e+02,4.489150599999999769e-01
3.770000000000000000e+02,4.489150599999999769e-01
3.780000000000000000e+02,4.489150599999999769e-01
3.790000000000000000e+02,4.489150599999999769e-01
3.800000000000000000e+02,4.489150599999999769e-01
3.810000000000000000e+02,4.489150599999999769e-01
3.820000000000000000e+02,4.489150599999999769e-01
3.830000000000000000e+02,4.489150599999999769e-01
3.840000000000000000e+02,4.489150599999999769e-01
3.850000000000000000e+02,4.489150599999999769e-01
3.860000000000000000e+02,4.489150599999999769e-01
3.870000000000000000e+02,4.489150599999999769e-01
3.880000000000000000e+02,4.489150599999999769e-01
3.890000000000000000e+02,4.489150599999999769e-01
3.900000000000000000e+02,4.489150599999999769e-01
3.910000000000000000e+02,4.489150599999999769e-01
3.920000000000000000e+02,4.489150599999999769e-01
3.930000000000000000e+02,4.489150599999999769e-01
3.940000000000000000e+02,4.489150599999999769e-01
3.950000000000000000e+02,4.489150599999999769e-01
3.960000000000000000e+02,4.489150599999999769e-01
3.970000000000000000e+02,4.489150599999999769e-01
3.980000000000000000e+02,4.489150599999999769e-01
3.990000000000000000e+02,4.489150599999999769e-01
4.000000000000000000e+02,4.489150599999999769e-01
4.010000000000000000e+02,4.489150599999999769e-01
4.020000000000000000e+02,4.489150599999999769e-01
4.030000000000000000e+02,4.489150599999999769e-01
4.040000000000000000e+02,4.489150599999999769e-01
4.050000000000000000e+02,4.489150599999999769e-01
4.060000000000000000e+02,4.489150599999999769e-01
4.070000000000000000e+02,4.489150599999999769e-01
4.080000000000000000e+02,4.489150599999999769e-01
4.090000000000000000e+02,4.489150599999999769e-01
4.100000000000000000e+02,4.489150599999999769e-01
4.110000000000000000e+02,4.489150599999999769e-01
4.120000000000000000e+02,4.489150599999999769e-01
4.130000000000000000e+02,4.489150599999999769e-01
4.140000000000000000e+02,4.489150599999999769e-01
4.150000000000000000e+02,4.489150599999999769e-01
4.160000000000000000e+02,4.489150599999999769e-01
4.170000000000000000e+02,4.489150599999999769e-01
4.180000000000000000e+02,4.489150599999999769e-01
4.190000000000000000e+02,4.489150599999999769e-01
4.200000000000000000e+02,4.489150599999999769e-01
4.210000000000000000e+02,4.489150599999999769e-01
4.220000000000000000e+02,4.489150599999999769e-01
4.230000000000000000e+02,4.489150599999999769e-01
4.240000000000000000e+02,4.489150599999999769e-01
4.250000000000000000e+02,4.489150599999999769e-01
4.260000000000000000e+02,4.489150599999999769e-01
4.270000000000000000e+02,4.489150599999999769e-01
4.280000000000000000e+02,4.489150599999999769e-01
4.290000000000000000e+02,4.489150599999999769e-01
4.300000000000000000e+02,4.489150599999999769e-01
4.310000000000000000e+02,4.489150599999999769e-01
4.320000000000000000e+02,4.489150599999999769e-01
4.330000000000000000e+02,4.489150599999999769e-01
4.340000000000000000e+02,4.489150599999999769e-01
4.350000000000000000e+02,4.489150599999999769e-01
4.360000000000000000e+02,4.489150599999999769e-01
4.370000000000000000e+02,4.489150599999999769e-01
4.380000000000000000e+02,4.489150599999999769e-01
4.390000000000000000e+02,4.489150599999999769e-01
4.400000000000000000e+02,4.489150599999999769e-01
4.410000000000000000e+02,4.489150599999999769e-01
4.420000000000000000e+02,4.489150599999999769e-01
4.430000000000000000e+02,4.489150599999999769e-01
4.440000000000000000e+02,4.489150599999999769e-01
4.450000000000000000e+02,4.489150599999999769e-01
4.460000000000000000e+02,4.489150599999999769e-01
4.470000000000000000e+02,4.489150599999999769e-01
4.480000000000000000e+02,4.489150599999999769e-01
4.490000000000000000e+02,4.489150599999999769e-01
4.500000000000000000e+02,4.489150599999999769e-01
4.510000000000000000e+02,4.489150599999999769e-01
4.520000000000000000e+02,4.489150599999999769e-01
4.530000000000000000e+02,4.489150599999999769e-01
4.540000000000000000e+02,4.489150599999999769e-01
4.550000000000000000e+02,4.489150599999999769e-01
4.560000000000000000e+02,4.489150599999999769e-01
4.570000000000000000e+02,4.489150599999999769e-01
4.580000000000000000e+02,4.489150599999999769e-01
4.590000000000000000e+02,4.489150599999999769e-01
4.600000000000000000e+02,4.489150599999999769e-01
4.610000000000000000e+02,4.489150599999999769e-01
4.620000000000000000e+02,4.489150599999999769e-01
4.630000000000000000e+02,4.489150599999999769e-01
4.640000000000000000e+02,4.489150599999999769e-01
4.650000000000000000e+02,4.489150599999999769e-01
4.660000000000000000e+02,4.489150599999999769e-01
4.670000000000000000e+02,4.489150599999999769e-01
4.680000000000000000e+02,4.489150599999999769e-01
4.690000000000000000e+02,4.489150599999999769e-01
4.700000000000000000e+02,4.489150599999999769e-01
4.710000000000000000e+02,4.489150599999999769e-01
4.720000000000000000e+02,4.489150599999999769e-01
4.730000000000000000e+02,4.489150599999999769e-01
4.740000000000000000e+02,4.489150599999999769e-01
4.750000000000000000e+02,4.489150599999999769e-01
4.760000000000000000e+02,4.489150599999999769e-01
4.770000000000000000e+02,4.489150599999999769e-01
4.780000000000000000e+02,4.489150599999999769e-01
4.790000000000000000e+02,4.489150599999999769e-01
4.800000000000000000e+02,4.489150599999999769e-01
4.810000000000000000e+02,4.489150599999999769e-01
4.820000000000000000e+02,4.489150599999999769e-01
4.830000000000000000e+02,4.489150599999999769e-01
4.840000000000000000e+02,4.489150599999999769e-01
4.850000000000000000e+02,4.489150599999999769e-01
4.860000000000000000e+02,4.489150599999999769e-01
4.870000000000000000e+02,4.489150599999999769e-01
4.880000000000000000e+02,4.489150599999999769e-01
4.890000000000000000e+02,4.489150599999999769e-01
4.900000000000000000e+02,4.489150599999999769e-01
4.910000000000000000e+02,4.489150599999999769e-01
4.920000000000000000e+02,4.489150599999999769e-01
4.930000000000000000e+02,4.489150599999999769e-01
4.940000000000000000e+02,4.489150599999999769e-01
4.950000000000000000e+02,4.489150599999999769e-01
4.960000000000000000e+02,4.489150599999999769e-01
4.970000000000000000e+02,4.489150599999999769e-01
4.980000000000000000e+02,4.489150599999999769e-01
4.990000000000000000e+02,4.489150599999999769e-01
5.000000000000000000e+02,4.489150599999999769e-01
5.010000000000000000e+02,4.489150599999999769e-01
5.020000000000000000e+02,4.489150599999999769e-01
5.030000000000000000e+02,4.489150599999999769e-01
5.040000000000000000e+02,4.489150599999999769e-01
5.050000000000000000e+02,4.489150599999999769e-01
5.060000000000000000e+02,4.489150599999999769e-01
5.070000000000000000e+02,4.489150599999999769e-01
5.080000000000000000e+02,4.489150599999999769e-01
5.090000000000000000e+02,4.489150599999999769e-01
5.100000000000000000e+02,4.489150599999999769e-01
5.110000000000000000e+02,4.489150599999999769e-01
5.120000000000000000e+02,4.489150599999999769e-01
5.130000000000000000e+02,4.489150599999999769e-01
5.140000000000000000e+02,4.489150599999999769e-01
5.150000000000000000e+02,4.489150599999999769e-01
5.160000000000000000e+02,4.489150599999999769e-01
5.170000000000000000e+02,4.489150599999999769e-01
5.180000000000000000e+02,4.489150599999999769e-01
5.190000000000000000e+02,4.489150599999999769e-01
5.200000000000000000e+02,4.489150599999999769e-01
5.210000000000000000e+02,4.489150599999999769e-01
5.220000000000000000e+02,4.489150599999999769e-01
5.230000000000000000e+02,4.489150599999999769e-01
5.240000000000000000e+02,4.489150599999999769e-01
5.250000000000000000e+02,4.489150599999999769e-01
5.260000000000000000e+02,4.489150599999999769e-01
5.270000000000000000e+02,4.489150599999999769e-01
5.280000000000000000e+02,4.489150599999999769e-01
5.290000000000000000e+02,4.489150599999999769e-01
5.300000000000000000e+02,4.489150599999999769e-01
5.310000000000000000e+02,4.489150599999999769e-01
5.320000000000000000e+02,4.489150599999999769e-01
5.330000000000000000e+02,4.489150599999999769e-01
5.340000000000000000e+02,4.489150599999999769e-01
5.350000000000000000e+02,4.489150599999999769e-01
5.360000000000000000e+02,4.489150599999999769e-01
5.370000000000000000e+02,4.489150599999999769e-01
5.380000000000000000e+02,4.489150599999999769e-01
5.390000000000000000e+02,4.489150599999999769e-01
5.400000000000000000e+02,4.489150599999999769e-01
5.410000000000000000e+02,4.489150599999999769e-01
5.420000000000000000e+02,4.489150599999999769e-01
5.430000000000000000e+02,4.489150599999999769e-01
5.440000000000000000e+02,4.489150599999999769e-01
5.450000000000000000e+02,4.489150599999999769e-01
5.460000000000000000e+02,4.489150599999999769e-01
5.470000000000000000e+02,4.489150599999999769e-01
5.480000000000000000e+02,4.489150599999999769e-01
5.490000000000000000e+02,4.489150599999999769e-01
5.500000000000000000e+02,4.489150599999999769e-01
5.510000000000000000e+02,4.489150599999999769e-01
5.520000000000000000e+02,4.489150599999999769e-01
5.530000000000000000e+02,4.489150599999999769e-01
5.540000000000000000e+02,4.489150599999999769e-01
5.550000000000000000e+02,4.489150599999999769e-01
5.560000000000000000e+02,4.489150599999999769e-01
5.570000000000000000e+02,4.489150599999999769e-01
5.580000000000000000e+02,4.489150599999999769e-01
5.590000000000000000e+02,4.489150599999999769e-01
5.600000000000000000e+02,4.489150599999999769e-01
5.610000000000000000e+02,4.489150599999999769e-01
5.620000000000000000e+02,4.489150599999999769e-01
5.630000000000000000e+02,4.489150599999999769e-01
5.640000000000000000e+02,4.489150599999999769e-01
5.650000000000000000e+02,4.489150599999999769e-01
5.660000000000000000e+02,4.489150599999999769e-01
5.670000000000000000e+02,4.489150599999999769e-01
5.680000000000000000e+02,4.489150599999999769e-01
5.690000000000000000e+02,4.489150599999999769e-01
5.700000000000000000e+02,4.489150599999999769e-01
5.710000000000000000e+02,4.489150599999999769e-01
5.720000000000000000e+02,4.489150599999999769e-01
5.730000000000000000e+02,4.489150599999999769e-01
5.740000000000000000e+02,4.489150599999999769e-01
5.750000000000000000e+02,4.489150599999999769e-01
5.760000000000000000e+02,4.489150599999999769e-01
5.770000000000000000e+02,4.489150599999999769e-01
5.780000000000000000e+02,4.489150599999999769e-01
5.790000000000000000e+02,4.489150599999999769e-01
5.800000000000000000e+02,4.489150599999999769e-01
5.810000000000000000e+02,4.489150599999999769e-01
5.820000000000000000e+02,4.489150599999999769e-01
5.830000000000000000e+02,4.489150599999999769e-01
5.840000000000000000e+02,4.489150599999999769e-01
5.850000000000000000e+02,4.489150599999999769e-01
5.860000000000000000e+02,4.489150599999999769e-01
5.870000000000000000e+02,4.489150599999999769e-01
5.880000000000000000e+02,4.489150599999999769e-01
5.890000000000000000e+02,4.489150599999999769e-01
5.900000000000000000e+02,4.489150599999999769e-01
5.910000000000000000e+02,4.489150599999999769e-01
5.920000000000000000e+02,4.489150599999999769e-01
5.930000000000000000e+02,4.489150599999999769e-01
5.940000000000000000e+02,4.489150599999999769e-01
5.950000000000000000e+02,4.489150599999999769e-01
5.960000000000000000e+02,4.489150599999999769e-01
5.970000000000000000e+02,4.489150599999999769e-01
5.980000000000000000e+02,4.489150599999999769e-01
5.990000000000000000e+02,4.489150599999999769e-01