# Time [s], Mass [Kg]
1.000000000000000000e+00,1.389829478400000096e-01
2.000000000000000000e+00,1.389829478400000096e-01
3.000000000000000000e+00,1.389829478400000096e-01
4.000000000000000000e+00,1.389829478400000096e-01
5.000000000000000000e+00,1.389829478400000096e-01
6.000000000000000000e+00,1.389829478400000096e-01
7.000000000000000000e+00,1.389829478400000096e-01
8.000000000000000000e+00,1.389829478399999818e-01
9.000000000000000000e+00,1.389829478399999541e-01
1.000000000000000000e+01,1.389829478399998708e-01
1.100000000000000000e+01,1.389829478399997043e-01
1.200000000000000000e+01,1.389829478399993989e-01
1.300000000000000000e+01,1.389829478399988161e-01
1.400000000000000000e+01,1.389829478399978169e-01
1.500000000000000000e+01,1.389829478399961238e-01
1.600000000000000000e+01,1.389829478399933760e-01
1.700000000000000000e+01,1.389829478399889906e-01
1.800000000000000000e+01,1.389829478399821905e-01
1.900000000000000000e+01,1.389829478399718099e-01
2.000000000000000000e+01,1.389829478399564056e-01
2.100000000000000000e+01,1.389829478399338680e-01
2.200000000000000000e+01,1.389829478399014495e-01
2.300000000000000000e+01,1.389829478398555695e-01
2.400000000000000000e+01,1.389829478397915374e-01
2.500000000000000000e+01,1.389829478397033857e-01
2.600000000000000000e+01,1.389829478395834261e-01
2.700000000000000000e+01,1.389829478394221107e-01
2.800000000000000000e+01,1.389829478392073936e-01
2.900000000000000000e+01,1.389829478389244533e-01
3.000000000000000000e+01,1.389829478385550821e-01
3.100000000000000000e+01,1.389829478380770478e-01
3.200000000000000000e+01,1.389829478374635108e-01
3.300000000000000000e+01,1.389829478366820525e-01
3.400000000000000000e+01,1.389829478356940651e-01
3.500000000000000000e+01,1.389829478344535574e-01
3.600000000000000000e+01,1.389829478329061285e-01
3.700000000000000000e+01,1.389829478309879129e-01
3.800000000000000000e+01,1.389829478286240261e-01
3.900000000000000000e+01,1.389829478257272599e-01
4.000000000000000000e+01,1.389829478221965564e-01
4.100000000000000000e+01,1.389829478179150091e-01
4.200000000000000000e+01,1.389829478127482254e-01
4.300000000000000000e+01,1.389829478065422452e-01
4.400000000000000000e+01,1.389829477991211815e-01
4.500000000000000000e+01,1.389829477902848331e-01
4.600000000000000000e+01,1.389829477798064372e-01
4.700000000000000000e+01,1.389829477674293379e-01
4.800000000000000000e+01,1.389829477528644053e-01
4.900000000000000000e+01,1.389829477357869825e-01
5.000000000000000000e+01,1.389829477158328885e-01
5.100000000000000000e+01,1.389829476925952267e-01
5.200000000000000000e+01,1.389829476656210261e-01
5.300000000000000000e+01,1.389829476344059955e-01
5.400000000000000000e+01,1.389829475983910823e-01
5.500000000000000000e+01,1.389829475569583084e-01
5.600000000000000000e+01,1.389829475094244982e-01
5.700000000000000000e+01,1.389829474550374200e-01
5.800000000000000000e+01,1.389829473929707626e-01
5.900000000000000000e+01,1.389829473223169187e-01
6.000000000000000000e+01,1.389829472420822942e-01
6.100000000000000000e+01,1.389829471511819514e-01
6.200000000000000000e+01,1.389829470484308938e-01
6.300000000000000000e+01,1.389829469325387645e-01
6.400000000000000000e+01,1.389829468021039072e-01
6.500000000000000000e+01,1.389829466556022075e-01
6.600000000000000000e+01,1.389829464913824031e-01
6.700000000000000000e+01,1.389829463076597271e-01
6.800000000000000000e+01,1.389829461025021418e-01
6.900000000000000000e+01,1.389829458738253420e-01
7.000000000000000000e+01,1.389829456193861223e-01
7.100000000000000000e+01,1.389829453367659451e-01
7.200000000000000000e+01,1.389829450233659447e-01
7.300000000000000000e+01,1.389829446763994891e-01
7.400000000000000000e+01,1.389829442928730563e-01
7.500000000000000000e+01,1.389829438695812103e-01
7.600000000000000000e+01,1.389829434030987465e-01
7.700000000000000000e+01,1.389829428897587371e-01
7.800000000000000000e+01,1.389829423256467855e-01
7.900000000000000000e+01,1.389829417065924777e-01
8.000000000000000000e+01,1.389829410281417377e-01
8.100000000000000000e+01,1.389829402855542462e-01
8.200000000000000000e+01,1.389829394737960855e-01
8.300000000000000000e+01,1.389829385875044621e-01
8.400000000000000000e+01,1.389829376209864575e-01
8.500000000000000000e+01,1.389829365682117568e-01
8.600000000000000000e+01,1.389829354227717084e-01
8.700000000000000000e+01,1.389829341778788252e-01
8.800000000000000000e+01,1.389829328263591235e-01
8.900000000000000000e+01,1.389829313606050221e-01
9.000000000000000000e+01,1.389829297725764246e-01
9.100000000000000000e+01,1.389829280537932532e-01
9.200000000000000000e+01,1.389829261952826578e-01
9.300000000000000000e+01,1.389829241875797095e-01
9.400000000000000000e+01,1.389829220207188520e-01
9.500000000000000000e+01,1.389829196841685099e-01
9.600000000000000000e+01,1.389829171668421626e-01
9.700000000000000000e+01,1.389829144570959574e-01
9.800000000000000000e+01,1.389829115426448047e-01
9.900000000000000000e+01,1.389829084105791701e-01
1.000000000000000000e+02,1.389829050473647132e-01
1.010000000000000000e+02,1.389829014387477246e-01
1.020000000000000000e+02,1.389828975697758595e-01
1.030000000000000000e+02,1.389828934247996639e-01
1.040000000000000000e+02,1.389828889873663542e-01
1.050000000000000000e+02,1.389828842402475728e-01
1.060000000000000000e+02,1.389828791654441620e-01
1.070000000000000000e+02,1.389828737440715611e-01
1.080000000000000000e+02,1.389828679563888669e-01
1.090000000000000000e+02,1.389828617818039680e-01
1.100000000000000000e+02,1.389828551987335736e-01
1.110000000000000000e+02,1.389828481846622221e-01
1.120000000000000000e+02,1.389828407161662616e-01
1.130000000000000000e+02,1.389828327687338272e-01
1.140000000000000000e+02,1.389828243168402533e-01
1.150000000000000000e+02,1.389828153339801586e-01
1.160000000000000000e+02,1.389828057924681060e-01
1.170000000000000000e+02,1.389827956635256712e-01
1.180000000000000000e+02,1.389827849173186636e-01
1.190000000000000000e+02,1.389827735227376626e-01
1.200000000000000000e+02,1.389827614475001583e-01
1.210000000000000000e+02,1.389827486581976523e-01
1.220000000000000000e+02,1.389827351200606520e-01
1.230000000000000000e+02,1.389827207970616707e-01
1.240000000000000000e+02,1.389827056519616633e-01
1.250000000000000000e+02,1.389826896460221728e-01
1.260000000000000000e+02,1.389826727391731687e-01
1.270000000000000000e+02,1.389826548900981729e-01
1.280000000000000000e+02,1.389826360558581719e-01
1.290000000000000000e+02,1.389826161920916514e-01
1.300000000000000000e+02,1.389825952531116571e-01
1.310000000000000000e+02,1.389825731914906548e-01
1.320000000000000000e+02,1.389825499582786617e-01
1.330000000000000000e+02,1.389825255031056639e-01
1.340000000000000000e+02,1.389824997737271750e-01
1.350000000000000000e+02,1.389824727162681517e-01
1.360000000000000000e+02,1.389824442753366529e-01
1.370000000000000000e+02,1.389824143935446676e-01
1.380000000000000000e+02,1.389823830117461745e-01
1.390000000000000000e+02,1.389823500691431679e-01
1.400000000000000000e+02,1.389823155027086754e-01
1.410000000000000000e+02,1.389822792475481628e-01
1.420000000000000000e+02,1.389822412370801674e-01
1.430000000000000000e+02,1.389822014022956687e-01
1.440000000000000000e+02,1.389821596721726726e-01
1.450000000000000000e+02,1.389821159738741652e-01
1.460000000000000000e+02,1.389820702319531642e-01
1.470000000000000000e+02,1.389820223687901757e-01
1.480000000000000000e+02,1.389819723047996669e-01
1.490000000000000000e+02,1.389819199575826614e-01
1.500000000000000000e+02,1.389818652424011647e-01
1.510000000000000000e+02,1.389818080724041782e-01
1.520000000000000000e+02,1.389817483577561741e-01
1.530000000000000000e+02,1.389816860060916759e-01
1.540000000000000000e+02,1.389816209227246746e-01
1.550000000000000000e+02,1.389815530096266682e-01
1.560000000000000000e+02,1.389814821660946553e-01
1.570000000000000000e+02,1.389814082890891700e-01
1.580000000000000000e+02,1.389813312719451743e-01
1.590000000000000000e+02,1.389812510051216532e-01
1.600000000000000000e+02,1.389811673765691535e-01
1.610000000000000000e+02,1.389810802703731751e-01
1.620000000000000000e+02,1.389809895675276630e-01
1.630000000000000000e+02,1.389808951463131770e-01
1.640000000000000000e+02,1.389807968808786653e-01
1.650000000000000000e+02,1.389806946420636680e-01
1.660000000000000000e+02,1.389805882978136509e-01
1.670000000000000000e+02,1.389804777117336632e-01
1.680000000000000000e+02,1.389803627438686573e-01
1.690000000000000000e+02,1.389802432510886532e-01
1.700000000000000000e+02,1.389801190854186574e-01
1.710000000000000000e+02,1.389799900951686762e-01
1.720000000000000000e+02,1.389798561255086717e-01
1.730000000000000000e+02,1.389797170163886708e-01
1.740000000000000000e+02,1.389795726037936774e-01
1.750000000000000000e+02,1.389794227203586530e-01
1.760000000000000000e+02,1.389792671932036650e-01
1.770000000000000000e+02,1.389791058452086725e-01
1.780000000000000000e+02,1.389789384956436613e-01
1.790000000000000000e+02,1.389787649579436735e-01
1.800000000000000000e+02,1.389785850410386603e-01
1.810000000000000000e+02,1.389783985500186725e-01
1.820000000000000000e+02,1.389782052838986759e-01
1.830000000000000000e+02,1.389780050368836783e-01
1.840000000000000000e+02,1.389777975989836545e-01
1.850000000000000000e+02,1.389775827534386610e-01
1.860000000000000000e+02,1.389773602784986628e-01
1.870000000000000000e+02,1.389771299483586742e-01
1.880000000000000000e+02,1.389768915299736673e-01
1.890000000000000000e+02,1.389766447850036557e-01
1.900000000000000000e+02,1.389763894708036518e-01
1.910000000000000000e+02,1.389761253371236682e-01
1.920000000000000000e+02,1.389758521281036774e-01
1.930000000000000000e+02,1.389755695832736726e-01
1.940000000000000000e+02,1.389752774341436736e-01
1.950000000000000000e+02,1.389749754062936660e-01
1.960000000000000000e+02,1.389746632204436616e-01
1.970000000000000000e+02,1.389743405890586647e-01
1.980000000000000000e+02,1.389740072182936714e-01
1.990000000000000000e+02,1.389736628089786596e-01
2.000000000000000000e+02,1.389733070527436609e-01
2.010000000000000000e+02,1.389729396347486601e-01
2.020000000000000000e+02,1.389725602351536693e-01
2.030000000000000000e+02,1.389721685243186511e-01
2.040000000000000000e+02,1.389717641657736702e-01
2.050000000000000000e+02,1.389713468177686539e-01
2.060000000000000000e+02,1.389709161283486649e-01
2.070000000000000000e+02,1.389704717383586641e-01
2.080000000000000000e+02,1.389700132829986556e-01
2.090000000000000000e+02,1.389695403867736712e-01
2.100000000000000000e+02,1.389690526666436665e-01
2.110000000000000000e+02,1.389685497336636544e-01
2.120000000000000000e+02,1.389680311879686603e-01
2.130000000000000000e+02,1.389674966217036567e-01
2.140000000000000000e+02,1.389669456205286646e-01
2.150000000000000000e+02,1.389663777579386583e-01
2.160000000000000000e+02,1.389657925993286747e-01
2.170000000000000000e+02,1.389651897042136763e-01
2.180000000000000000e+02,1.389645686192036711e-01
2.190000000000000000e+02,1.389639288824136565e-01
2.200000000000000000e+02,1.389632700258036646e-01
2.210000000000000000e+02,1.389625915679936763e-01
2.220000000000000000e+02,1.389618930186936607e-01
2.230000000000000000e+02,1.389611738810536679e-01
2.240000000000000000e+02,1.389604336443486521e-01
2.250000000000000000e+02,1.389596717885836774e-01
2.260000000000000000e+02,1.389588877869536720e-01
2.270000000000000000e+02,1.389580810986186521e-01
2.280000000000000000e+02,1.389572511729886550e-01
2.290000000000000000e+02,1.389563974519736622e-01
2.300000000000000000e+02,1.389555193618236539e-01
2.310000000000000000e+02,1.389546163190336636e-01
2.320000000000000000e+02,1.389536877336186582e-01
2.330000000000000000e+02,1.389527329990836724e-01
2.340000000000000000e+02,1.389517514987736735e-01
2.350000000000000000e+02,1.389507426092836673e-01
2.360000000000000000e+02,1.389497056903336580e-01
2.370000000000000000e+02,1.389486400910336650e-01
2.380000000000000000e+02,1.389475451532836692e-01
2.390000000000000000e+02,1.389464202015836536e-01
2.400000000000000000e+02,1.389452645494836658e-01
2.410000000000000000e+02,1.389440775032336761e-01
2.420000000000000000e+02,1.389428583515836535e-01
2.430000000000000000e+02,1.389416063718336702e-01
2.440000000000000000e+02,1.389403208331836670e-01
2.450000000000000000e+02,1.389390009852836672e-01
2.460000000000000000e+02,1.389376460665836532e-01
2.470000000000000000e+02,1.389362553090336683e-01
2.480000000000000000e+02,1.389348279240336659e-01
2.490000000000000000e+02,1.389333631113836565e-01
2.500000000000000000e+02,1.389318600642836521e-01
2.510000000000000000e+02,1.389303179550336609e-01
2.520000000000000000e+02,1.389287359439836667e-01
2.530000000000000000e+02,1.389271131844836693e-01
2.540000000000000000e+02,1.389254488084836758e-01
2.550000000000000000e+02,1.389237419356836589e-01
2.560000000000000000e+02,1.389219916787336750e-01
2.570000000000000000e+02,1.389201971292336746e-01
2.580000000000000000e+02,1.389183573660836557e-01
2.590000000000000000e+02,1.389164714601336670e-01
2.600000000000000000e+02,1.389145384586336629e-01
2.610000000000000000e+02,1.389125573966836780e-01
2.620000000000000000e+02,1.389105273037336552e-01
2.630000000000000000e+02,1.389084471846836755e-01
2.640000000000000000e+02,1.389063160319836676e-01
2.650000000000000000e+02,1.389041328324836511e-01
2.660000000000000000e+02,1.389018965482836654e-01
2.670000000000000000e+02,1.388996061287836592e-01
2.680000000000000000e+02,1.388972605174836616e-01
2.690000000000000000e+02,1.388948586327336532e-01
2.700000000000000000e+02,1.388923993801336743e-01
2.710000000000000000e+02,1.388898816595336705e-01
2.720000000000000000e+02,1.388873043463336732e-01
2.730000000000000000e+02,1.388846663028336648e-01
2.740000000000000000e+02,1.388819663845836661e-01
2.750000000000000000e+02,1.388792034195836522e-01
2.760000000000000000e+02,1.388763762236836508e-01
2.770000000000000000e+02,1.388734836094836778e-01
2.780000000000000000e+02,1.388705243610336704e-01
2.790000000000000000e+02,1.388674972501836580e-01
2.800000000000000000e+02,1.388644010458336686e-01
2.810000000000000000e+02,1.388612344884336547e-01
2.820000000000000000e+02,1.388579963061836731e-01
2.830000000000000000e+02,1.388546852241336615e-01
2.840000000000000000e+02,1.388512999387836733e-01
2.850000000000000000e+02,1.388478391345836782e-01
2.860000000000000000e+02,1.388443014932836672e-01
2.870000000000000000e+02,1.388406856693836511e-01
2.880000000000000000e+02,1.388369903050836740e-01
2.890000000000000000e+02,1.388332140388336688e-01
2.900000000000000000e+02,1.388293554782336625e-01
2.910000000000000000e+02,1.388254132200836544e-01
2.920000000000000000e+02,1.388213858622836527e-01
2.930000000000000000e+02,1.388172719709336589e-01
2.940000000000000000e+02,1.388130701016336566e-01
2.950000000000000000e+02,1.388087788116336707e-01
2.960000000000000000e+02,1.388043966269336682e-01
2.970000000000000000e+02,1.387999220632336606e-01
2.980000000000000000e+02,1.387953536379336605e-01
2.990000000000000000e+02,1.387906898374836606e-01
3.000000000000000000e+02,1.387859291384836713e-01
3.010000000000000000e+02,1.387810700200836633e-01
3.020000000000000000e+02,1.387761109324336661e-01
3.030000000000000000e+02,1.387710503160336784e-01
3.040000000000000000e+02,1.387658866127836621e-01
3.050000000000000000e+02,1.387606182311836578e-01
3.060000000000000000e+02,1.387552435723336530e-01
3.070000000000000000e+02,1.387497610451836616e-01
3.080000000000000000e+02,1.387441690246836723e-01
3.090000000000000000e+02,1.387384658788336778e-01
3.100000000000000000e+02,1.387326499843836713e-01
3.110000000000000000e+02,1.387267196852836615e-01
3.120000000000000000e+02,1.387206733190336772e-01
3.130000000000000000e+02,1.387145092320836715e-01
3.140000000000000000e+02,1.387082257387336759e-01
3.150000000000000000e+02,1.387018211478836527e-01
3.160000000000000000e+02,1.386952937785336515e-01
3.170000000000000000e+02,1.386886419204336751e-01
3.180000000000000000e+02,1.386818638582836549e-01
3.190000000000000000e+02,1.386749578856336651e-01
3.200000000000000000e+02,1.386679222617836771e-01
3.210000000000000000e+02,1.386607552438836599e-01
3.220000000000000000e+02,1.386534551062336695e-01
3.230000000000000000e+02,1.386460200883336547e-01
3.240000000000000000e+02,1.386384484284836627e-01
3.250000000000000000e+02,1.386307383833336737e-01
3.260000000000000000e+02,1.386228881764836607e-01
3.270000000000000000e+02,1.386148960311836542e-01
3.280000000000000000e+02,1.386067601893836709e-01
3.290000000000000000e+02,1.385984788611336616e-01
3.300000000000000000e+02,1.385900502574336779e-01
3.310000000000000000e+02,1.385814726095336569e-01
3.320000000000000000e+02,1.385727441206336674e-01
3.330000000000000000e+02,1.385638629955336654e-01
3.340000000000000000e+02,1.385548274577336758e-01
3.350000000000000000e+02,1.385456356967336711e-01
3.360000000000000000e+02,1.385362859073336617e-01
3.370000000000000000e+02,1.385267763132336516e-01
3.380000000000000000e+02,1.385171051037836776e-01
3.390000000000000000e+02,1.385072704746836691e-01
3.400000000000000000e+02,1.384972706520836705e-01
3.410000000000000000e+02,1.384871038300836688e-01
3.420000000000000000e+02,1.384767682100836728e-01
3.430000000000000000e+02,1.384662620240836584e-01
3.440000000000000000e+02,1.384555834735836655e-01
3.450000000000000000e+02,1.384447307695836626e-01
3.460000000000000000e+02,1.384337021555836766e-01
3.470000000000000000e+02,1.384224958485836543e-01
3.480000000000000000e+02,1.384111100755836543e-01
3.490000000000000000e+02,1.383995430945836602e-01
3.500000000000000000e+02,1.383877931305836639e-01
3.510000000000000000e+02,1.383758584220836640e-01
3.520000000000000000e+02,1.383637372500836626e-01
3.530000000000000000e+02,1.383514278630836591e-01
3.540000000000000000e+02,1.383389285245836542e-01
3.550000000000000000e+02,1.383262375415836576e-01
3.560000000000000000e+02,1.383133531910836767e-01
3.570000000000000000e+02,1.383002737665836590e-01
3.580000000000000000e+02,1.382869976050836724e-01
3.590000000000000000e+02,1.382735230150836658e-01
3.600000000000000000e+02,1.382598483235836784e-01
3.610000000000000000e+02,1.382459719025836697e-01
3.620000000000000000e+02,1.382318921010836643e-01
3.630000000000000000e+02,1.382176072870836547e-01
3.640000000000000000e+02,1.382031158705836760e-01
3.650000000000000000e+02,1.381884162310836606e-01
3.660000000000000000e+02,1.381735067710836706e-01
3.670000000000000000e+02,1.381583859490836674e-01
3.680000000000000000e+02,1.381430521920836707e-01
3.690000000000000000e+02,1.381275039510836689e-01
3.700000000000000000e+02,1.381117397350836717e-01
3.710000000000000000e+02,1.380957580240836646e-01
3.720000000000000000e+02,1.380795573230836626e-01
3.730000000000000000e+02,1.380631361935836521e-01
3.740000000000000000e+02,1.380464931705836784e-01
3.750000000000000000e+02,1.380296268160836615e-01
3.760000000000000000e+02,1.380125357495836647e-01
3.770000000000000000e+02,1.379952185700836775e-01
3.780000000000000000e+02,1.379776739030836585e-01
3.790000000000000000e+02,1.379599004280836760e-01
3.800000000000000000e+02,1.379418967945836572e-01
3.810000000000000000e+02,1.379236616835836648e-01
3.820000000000000000e+02,1.379051938445836623e-01
3.830000000000000000e+02,1.378864919965836766e-01
3.840000000000000000e+02,1.378675548900836767e-01
3.850000000000000000e+02,1.378483813445836592e-01
3.860000000000000000e+02,1.378289701525836630e-01
3.870000000000000000e+02,1.378093201380836685e-01
3.880000000000000000e+02,1.377894301930836785e-01
3.890000000000000000e+02,1.377692991835836600e-01
3.900000000000000000e+02,1.377489260085836553e-01
3.910000000000000000e+02,1.377283096355836622e-01
3.920000000000000000e+02,1.377074490120836769e-01
3.930000000000000000e+02,1.376863431185836595e-01
3.940000000000000000e+02,1.376649909985836751e-01
3.950000000000000000e+02,1.376433916650836586e-01
3.960000000000000000e+02,1.376215441680836704e-01
3.970000000000000000e+02,1.375994476355836549e-01
3.980000000000000000e+02,1.375771011645836595e-01
3.990000000000000000e+02,1.375545038885836735e-01
4.000000000000000000e+02,1.375316550190836540e-01
4.010000000000000000e+02,1.375085537390836610e-01
4.020000000000000000e+02,1.374851992680836688e-01
4.030000000000000000e+02,1.374615909010836745e-01
4.040000000000000000e+02,1.374377279050836564e-01
4.050000000000000000e+02,1.374136095845836514e-01
4.060000000000000000e+02,1.373892353195836635e-01
4.070000000000000000e+02,1.373646044685836731e-01
4.080000000000000000e+02,1.373397164255836522e-01
4.090000000000000000e+02,1.373145706530836674e-01
4.100000000000000000e+02,1.372891665805836547e-01
4.110000000000000000e+02,1.372635036775836648e-01
4.120000000000000000e+02,1.372375814970836772e-01
4.130000000000000000e+02,1.372113995575836576e-01
4.140000000000000000e+02,1.371849574160836638e-01
4.150000000000000000e+02,1.371582547120836770e-01
4.160000000000000000e+02,1.371312910535836538e-01
4.170000000000000000e+02,1.371040660855836757e-01
4.180000000000000000e+02,1.370765795315836699e-01
4.190000000000000000e+02,1.370488310850836722e-01
4.200000000000000000e+02,1.370208204765836768e-01
4.210000000000000000e+02,1.369925475135836679e-01
4.220000000000000000e+02,1.369640119795836608e-01
4.230000000000000000e+02,1.369352136925836572e-01
4.240000000000000000e+02,1.369061525405836643e-01
4.250000000000000000e+02,1.368768283735836699e-01
4.260000000000000000e+02,1.368472410795836536e-01
4.270000000000000000e+02,1.368173906320836741e-01
4.280000000000000000e+02,1.367872769645836761e-01
4.290000000000000000e+02,1.367569000470836571e-01
4.300000000000000000e+02,1.367262599330836548e-01
4.310000000000000000e+02,1.366953566385836760e-01
4.320000000000000000e+02,1.366641902135836695e-01
4.330000000000000000e+02,1.366327607860836624e-01
4.340000000000000000e+02,1.366010684485836624e-01
4.350000000000000000e+02,1.365691133265836688e-01
4.360000000000000000e+02,1.365368956210836759e-01
4.370000000000000000e+02,1.365044155035836648e-01
4.380000000000000000e+02,1.364716731755836743e-01
4.390000000000000000e+02,1.364386689060836655e-01
4.400000000000000000e+02,1.364054029190836514e-01
4.410000000000000000e+02,1.363718754720836535e-01
4.420000000000000000e+02,1.363380869055836608e-01
4.430000000000000000e+02,1.363040375130836757e-01
4.440000000000000000e+02,1.362697276190836526e-01
4.450000000000000000e+02,1.362351576270836584e-01
4.460000000000000000e+02,1.362003278970836673e-01
4.470000000000000000e+02,1.361652388175836614e-01
4.480000000000000000e+02,1.361298908500836735e-01
4.490000000000000000e+02,1.360942844130836604e-01
4.500000000000000000e+02,1.360584199515836590e-01
4.510000000000000000e+02,1.360222979815836619e-01
4.520000000000000000e+02,1.359859189820836756e-01
4.530000000000000000e+02,1.359492834550836693e-01
4.540000000000000000e+02,1.359123919640836675e-01
4.550000000000000000e+02,1.358752450205836515e-01
4.560000000000000000e+02,1.358378431615836768e-01
4.570000000000000000e+02,1.358001870005836609e-01
4.580000000000000000e+02,1.357622770975836501e-01
4.590000000000000000e+02,1.357241140355836539e-01
4.600000000000000000e+02,1.356856984695836710e-01
4.610000000000000000e+02,1.356470310035836624e-01
4.620000000000000000e+02,1.356081122615836743e-01
4.630000000000000000e+02,1.355689429340836694e-01
4.640000000000000000e+02,1.355295236615836618e-01
4.650000000000000000e+02,1.354898551015836505e-01
4.660000000000000000e+02,1.354499379750836729e-01
4.670000000000000000e+02,1.354097729595836741e-01
4.680000000000000000e+02,1.353693607465836501e-01
4.690000000000000000e+02,1.353287020805836738e-01
4.700000000000000000e+02,1.352877976480836575e-01
4.710000000000000000e+02,1.352466481515836594e-01
4.720000000000000000e+02,1.352052543605836710e-01
4.730000000000000000e+02,1.351636169865836623e-01
4.740000000000000000e+02,1.351217367535836600e-01
4.750000000000000000e+02,1.350796144480836680e-01
4.760000000000000000e+02,1.350372508015836581e-01
4.770000000000000000e+02,1.349946465550836694e-01
4.780000000000000000e+02,1.349518025065836735e-01
4.790000000000000000e+02,1.349087194000836709e-01
4.800000000000000000e+02,1.348653979860836571e-01
4.810000000000000000e+02,1.348218390685836654e-01
4.820000000000000000e+02,1.347780434050836751e-01
4.830000000000000000e+02,1.347340117560836548e-01
4.840000000000000000e+02,1.346897449255836654e-01
4.850000000000000000e+02,1.346452436575836520e-01
4.860000000000000000e+02,1.346005087010836709e-01
4.870000000000000000e+02,1.345555408615836668e-01
4.880000000000000000e+02,1.345103408845836623e-01
4.890000000000000000e+02,1.344649095180836529e-01
4.900000000000000000e+02,1.344192475620836491e-01
4.910000000000000000e+02,1.343733557605836515e-01
4.920000000000000000e+02,1.343272348575836606e-01
4.930000000000000000e+02,1.342808856430836584e-01
4.940000000000000000e+02,1.342343088525836670e-01
4.950000000000000000e+02,1.341875052190836526e-01
4.960000000000000000e+02,1.341404755185836573e-01
4.970000000000000000e+02,1.340932204795836635e-01
4.980000000000000000e+02,1.340457408265836592e-01
4.990000000000000000e+02,1.339980373175836681e-01
5.000000000000000000e+02,1.339501106500836647e-01
5.010000000000000000e+02,1.339019615190836510e-01
5.020000000000000000e+02,1.338535906655836660e-01
5.030000000000000000e+02,1.338049987725836720e-01
5.040000000000000000e+02,1.337561865180836584e-01
5.050000000000000000e+02,1.337071546220836571e-01
5.060000000000000000e+02,1.336579037505836731e-01
5.070000000000000000e+02,1.336084345630836612e-01
5.080000000000000000e+02,1.335587477555836566e-01
5.090000000000000000e+02,1.335088439725836684e-01
5.100000000000000000e+02,1.334587238510836771e-01
5.110000000000000000e+02,1.334083880615836715e-01
5.120000000000000000e+02,1.333578372300836534e-01
5.130000000000000000e+02,1.333070719735836573e-01
5.140000000000000000e+02,1.332560929350836698e-01
5.150000000000000000e+02,1.332049007035836508e-01
5.160000000000000000e+02,1.331534958595836649e-01
5.170000000000000000e+02,1.331018790210836689e-01
5.180000000000000000e+02,1.330500507550836653e-01
5.190000000000000000e+02,1.329980116185836558e-01
5.200000000000000000e+02,1.329457622035836728e-01
5.210000000000000000e+02,1.328933030565836726e-01
5.220000000000000000e+02,1.328406347130836607e-01
5.230000000000000000e+02,1.327877577385836727e-01
5.240000000000000000e+02,1.327346726560836576e-01
5.250000000000000000e+02,1.326813799770836522e-01
5.260000000000000000e+02,1.326278802420836622e-01
5.270000000000000000e+02,1.325741739560836741e-01
5.280000000000000000e+02,1.325202616130836675e-01
5.290000000000000000e+02,1.324661437290836630e-01
5.300000000000000000e+02,1.324118207765836719e-01
5.310000000000000000e+02,1.323572932185836659e-01
5.320000000000000000e+02,1.323025615500836583e-01
5.330000000000000000e+02,1.322476262275836534e-01
5.340000000000000000e+02,1.321924876975836549e-01
5.350000000000000000e+02,1.321371464365836690e-01
5.360000000000000000e+02,1.320816028880836546e-01
5.370000000000000000e+02,1.320258574860836698e-01
5.380000000000000000e+02,1.319699106910836583e-01
5.390000000000000000e+02,1.319137629345836504e-01
5.400000000000000000e+02,1.318574146390836532e-01
5.410000000000000000e+02,1.318008662520836760e-01
5.420000000000000000e+02,1.317441181995836763e-01
5.430000000000000000e+02,1.316871708995836499e-01
5.440000000000000000e+02,1.316300247905836662e-01
5.450000000000000000e+02,1.315726802840836707e-01
5.460000000000000000e+02,1.315151377845836522e-01
5.470000000000000000e+02,1.314573977255836523e-01
5.480000000000000000e+02,1.313994605185836717e-01
5.490000000000000000e+02,1.313413265695836663e-01
5.500000000000000000e+02,1.312829963130836552e-01
5.510000000000000000e+02,1.312244701660836566e-01
5.520000000000000000e+02,1.311657485410836488e-01
5.530000000000000000e+02,1.311068318775836516e-01
5.540000000000000000e+02,1.310477206010836615e-01
5.550000000000000000e+02,1.309884151340836578e-01
5.560000000000000000e+02,1.309289159255836721e-01
5.570000000000000000e+02,1.308692234160836743e-01
5.580000000000000000e+02,1.308093380455836729e-01
5.590000000000000000e+02,1.307492602780836732e-01
5.600000000000000000e+02,1.306889905655836681e-01
5.610000000000000000e+02,1.306285293590836727e-01
5.620000000000000000e+02,1.305678771395836768e-01
5.630000000000000000e+02,1.305070343825836532e-01
5.640000000000000000e+02,1.304460015650836524e-01
5.650000000000000000e+02,1.303847791930836664e-01
5.660000000000000000e+02,1.303233677710836647e-01
5.670000000000000000e+02,1.302617678065836615e-01
5.680000000000000000e+02,1.301999798355836513e-01
5.690000000000000000e+02,1.301380043960836674e-01
5.700000000000000000e+02,1.300758420300836549e-01
5.710000000000000000e+02,1.300134933075836607e-01
5.720000000000000000e+02,1.299509588050836717e-01
5.730000000000000000e+02,1.298882391060836583e-01
5.740000000000000000e+02,1.298253348205836710e-01
5.750000000000000000e+02,1.297622465615836662e-01
5.760000000000000000e+02,1.296989749485836785e-01
5.770000000000000000e+02,1.296355206320836673e-01
5.780000000000000000e+02,1.295718842705836649e-01
5.790000000000000000e+02,1.295080665320836599e-01
5.800000000000000000e+02,1.294440681145836713e-01
5.810000000000000000e+02,1.293798897275836579e-01
5.820000000000000000e+02,1.293155320915836681e-01
5.830000000000000000e+02,1.292509959560836641e-01
5.840000000000000000e+02,1.291862820840836701e-01
5.850000000000000000e+02,1.291213912505836670e-01
5.860000000000000000e+02,1.290563242595836602e-01
5.870000000000000000e+02,1.289910819310836620e-01
5.880000000000000000e+02,1.289256650995836695e-01
5.890000000000000000e+02,1.288600746275836706e-01
5.900000000000000000e+02,1.287943113910836601e-01
5.910000000000000000e+02,1.287283762790836783e-01
5.920000000000000000e+02,1.286622702110836736e-01
5.930000000000000000e+02,1.285959941240836790e-01
5.940000000000000000e+02,1.285295489690836679e-01
5.950000000000000000e+02,1.284629357270836714e-01
5.960000000000000000e+02,1.283961553995836558e-01
5.970000000000000000e+02,1.283292090030836718e-01
5.980000000000000000e+02,1.282620975825836673e-01
5.990000000000000000e+02,1.281948222035836638e-01