s,m,C,C
Time,"Wall thickness","Wall_temperature","Back_wall_temperature"
 0.0000000E+000, 8.0000004E-003, 2.5000000E+001, 2.5000000E+001
 1.0000000E+000, 8.0000004E-003, 2.4999971E+001, 2.5000000E+001
 2.0000000E+000, 8.0000004E-003, 1.0598166E+002, 2.5000000E+001
 3.0000000E+000, 8.0000004E-003, 1.5519685E+002, 2.5000000E+001
 4.0000000E+000, 8.0000004E-003, 1.9197835E+002, 2.5000000E+001
 5.0000000E+000, 8.0000004E-003, 2.2221454E+002, 2.5000002E+001
 6.0000000E+000, 8.0000004E-003, 2.4812674E+002, 2.5000017E+001
 7.0000000E+000, 8.0000004E-003, 2.7091016E+002, 2.5000078E+001
 8.0000000E+000, 8.0000004E-003, 2.9141595E+002, 2.5000296E+001
 9.0000000E+000, 8.0000004E-003, 3.1032620E+002, 2.5000929E+001
 1.0000000E+001, 8.0000004E-003, 3.2787119E+002, 2.5002527E+001
 1.1000000E+001, 8.0000004E-003, 3.4380490E+002, 2.5006075E+001
 1.2000000E+001, 8.0000004E-003, 3.5821771E+002, 2.5013151E+001
 1.3000000E+001, 8.0000004E-003, 3.7133777E+002, 2.5026060E+001
 1.4000000E+001, 8.0000004E-003, 3.8329694E+002, 2.5047873E+001
 1.5000000E+001, 8.0000004E-003, 3.9415799E+002, 2.5082424E+001
 1.6000000E+001, 8.0000004E-003, 4.0390143E+002, 2.5134235E+001
 1.7000000E+001, 8.0000004E-003, 4.1245343E+002, 2.5208380E+001
 1.8000000E+001, 8.0000004E-003, 4.2002005E+002, 2.5310339E+001
 1.9000000E+001, 8.0000004E-003, 4.2670734E+002, 2.5445841E+001
 2.0000000E+001, 8.0000004E-003, 4.3247339E+002, 2.5620684E+001
 2.1000000E+001, 8.0000004E-003, 4.3815942E+002, 2.5840630E+001
 2.2000000E+001, 8.0000004E-003, 4.4373917E+002, 2.6111244E+001
 2.3000000E+001, 8.0000004E-003, 4.4900723E+002, 2.6437803E+001
 2.4000000E+001, 8.0000004E-003, 4.5513815E+002, 2.6825247E+001
 2.5000000E+001, 8.0000004E-003, 4.6171500E+002, 2.7278051E+001
 2.6000000E+001, 8.0000004E-003, 4.6844479E+002, 2.7800255E+001
 2.7000000E+001, 8.0000004E-003, 4.7600632E+002, 2.8395452E+001
 2.8000000E+001, 8.0000004E-003, 4.8346228E+002, 2.9066534E+001
 2.9000000E+001, 8.0000004E-003, 4.8973422E+002, 2.9815880E+001
 3.0000000E+001, 8.0000004E-003, 4.9501349E+002, 3.0645456E+001
 3.1000000E+001, 8.0000004E-003, 4.9976889E+002, 3.1556660E+001
 3.2000000E+001, 8.0000004E-003, 5.0422702E+002, 3.2550209E+001
 3.3000000E+001, 8.0000004E-003, 5.0854300E+002, 3.3626640E+001
 3.4000000E+001, 8.0000004E-003, 5.1282428E+002, 3.4785984E+001
 3.5000000E+001, 8.0000004E-003, 5.1716583E+002, 3.6027725E+001
 3.6000000E+001, 8.0000004E-003, 5.2160529E+002, 3.7351128E+001
 3.7000000E+001, 8.0000004E-003, 5.2616321E+002, 3.8755371E+001
 3.8000000E+001, 8.0000004E-003, 5.3080176E+002, 4.0239132E+001
 3.9000000E+001, 8.0000004E-003, 5.3542310E+002, 4.1801102E+001
 4.0000000E+001, 8.0000004E-003, 5.3987366E+002, 4.3439636E+001
 4.1000000E+001, 8.0000004E-003, 5.4401422E+002, 4.5153133E+001
 4.2000000E+001, 8.0000004E-003, 5.4776733E+002, 4.6939522E+001
 4.3000000E+001, 8.0000004E-003, 5.5120941E+002, 4.8796944E+001
 4.4000000E+001, 8.0000004E-003, 5.5445599E+002, 5.0723339E+001
 4.5000000E+001, 8.0000004E-003, 5.5755737E+002, 5.2716400E+001
 4.6000000E+001, 8.0000004E-003, 5.6058484E+002, 5.4774036E+001
 4.7000000E+001, 8.0000004E-003, 5.6358051E+002, 5.6893997E+001
 4.8000000E+001, 8.0000004E-003, 5.6657318E+002, 5.9074001E+001
 4.9000000E+001, 8.0000004E-003, 5.6957538E+002, 6.1312172E+001
 5.0000000E+001, 8.0000004E-003, 5.7260419E+002, 6.3606022E+001
 5.1000000E+001, 8.0000004E-003, 5.7562286E+002, 6.5953522E+001
 5.2000000E+001, 8.0000004E-003, 5.7860754E+002, 6.8352333E+001
 5.3000000E+001, 8.0000004E-003, 5.8152185E+002, 7.0800323E+001
 5.4000000E+001, 8.0000004E-003, 5.8430750E+002, 7.3295242E+001
 5.5000000E+001, 8.0000004E-003, 5.8695258E+002, 7.5834839E+001
 5.6000000E+001, 8.0000004E-003, 5.8945660E+002, 7.8417480E+001
 5.7000000E+001, 8.0000004E-003, 5.9183673E+002, 8.1040604E+001
 5.8000000E+001, 8.0000004E-003, 5.9412018E+002, 8.3702614E+001
 5.9000000E+001, 8.0000004E-003, 5.9633832E+002, 8.6401253E+001
 6.0000000E+001, 8.0000004E-003, 5.9850421E+002, 8.9134544E+001
 6.1000000E+001, 8.0000004E-003, 6.0064716E+002, 9.1900803E+001
 6.2000000E+001, 8.0000004E-003, 6.0276807E+002, 9.4698227E+001
 6.3000000E+001, 8.0000004E-003, 6.0488287E+002, 9.7525063E+001
 6.4000000E+001, 8.0000004E-003, 6.0698352E+002, 1.0037975E+002
 6.5000000E+001, 8.0000004E-003, 6.0907684E+002, 1.0326024E+002
 6.6000000E+001, 8.0000004E-003, 6.1114740E+002, 1.0616509E+002
 6.7000000E+001, 8.0000004E-003, 6.1317963E+002, 1.0909269E+002
 6.8000000E+001, 8.0000004E-003, 6.1516339E+002, 1.1204178E+002
 6.9000000E+001, 8.0000004E-003, 6.1708826E+002, 1.1501023E+002
 7.0000000E+001, 8.0000004E-003, 6.1894336E+002, 1.1799701E+002
 7.1000000E+001, 8.0000004E-003, 6.2073633E+002, 1.2100031E+002
 7.2000000E+001, 8.0000004E-003, 6.2247186E+002, 1.2401952E+002
 7.3000000E+001, 8.0000004E-003, 6.2415729E+002, 1.2705260E+002
 7.4000000E+001, 8.0000004E-003, 6.2580414E+002, 1.3009880E+002
 7.5000000E+001, 8.0000004E-003, 6.2742218E+002, 1.3315657E+002
 7.6000000E+001, 8.0000004E-003, 6.2901556E+002, 1.3622519E+002
 7.7000000E+001, 8.0000004E-003, 6.3059369E+002, 1.3930330E+002
 7.8000000E+001, 8.0000004E-003, 6.3215723E+002, 1.4238950E+002
 7.9000000E+001, 8.0000004E-003, 6.3371222E+002, 1.4548317E+002
 8.0000000E+001, 8.0000004E-003, 6.3525458E+002, 1.4858305E+002
 8.1000000E+001, 8.0000004E-003, 6.3678033E+002, 1.5168805E+002
 8.2000000E+001, 8.0000004E-003, 6.3828961E+002, 1.5479713E+002
 8.3000000E+001, 8.0000004E-003, 6.3977728E+002, 1.5790955E+002
 8.4000000E+001, 8.0000004E-003, 6.4123163E+002, 1.6102432E+002
 8.5000000E+001, 8.0000004E-003, 6.4265717E+002, 1.6414064E+002
 8.6000000E+001, 8.0000004E-003, 6.4405426E+002, 1.6725737E+002
 8.7000000E+001, 8.0000013E-003, 6.4541254E+002, 1.7037422E+002
 8.8000000E+001, 8.0000013E-003, 6.4674054E+002, 1.7349025E+002
 8.9000000E+001, 8.0000013E-003, 6.4804425E+002, 1.7660490E+002
 9.0000000E+001, 8.0000013E-003, 6.4932983E+002, 1.7971748E+002
 9.1000000E+001, 8.0000013E-003, 6.5059106E+002, 1.8282669E+002
 9.2000000E+001, 8.0000013E-003, 6.5184064E+002, 1.8593242E+002
 9.3000000E+001, 8.0000013E-003, 6.5307489E+002, 1.8903395E+002
 9.4000000E+001, 8.0000013E-003, 6.5429889E+002, 1.9213042E+002
 9.5000000E+001, 8.0000013E-003, 6.5551648E+002, 1.9522090E+002
 9.6000000E+001, 8.0000013E-003, 6.5672272E+002, 1.9830551E+002
 9.7000000E+001, 8.0000013E-003, 6.5791669E+002, 2.0138322E+002
 9.8000000E+001, 8.0000013E-003, 6.5910596E+002, 2.0445320E+002
 9.9000000E+001, 8.0000013E-003, 6.6027527E+002, 2.0751559E+002
 1.0000000E+002, 8.0000013E-003, 6.6142816E+002, 2.1056953E+002
 1.0100000E+002, 8.0000013E-003, 6.6257019E+002, 2.1361424E+002
 1.0200000E+002, 8.0000013E-003, 6.6368677E+002, 2.1664989E+002
 1.0300000E+002, 8.0000013E-003, 6.6478912E+002, 2.1967554E+002
 1.0400000E+002, 8.0000013E-003, 6.6587531E+002, 2.2269101E+002
 1.0500000E+002, 8.0000013E-003, 6.6694135E+002, 2.2569579E+002
 1.0600000E+002, 8.0000013E-003, 6.6799738E+002, 2.2868938E+002
 1.0700000E+002, 8.0000013E-003, 6.6903809E+002, 2.3167117E+002
 1.0800000E+002, 8.0000013E-003, 6.7006793E+002, 2.3464096E+002
 1.0900000E+002, 8.0000013E-003, 6.7108966E+002, 2.3759814E+002
 1.1000000E+002, 8.0000013E-003, 6.7210339E+002, 2.4054193E+002
 1.1100000E+002, 8.0000013E-003, 6.7310974E+002, 2.4347235E+002
 1.1200000E+002, 8.0000013E-003, 6.7410291E+002, 2.4638890E+002
 1.1300000E+002, 8.0000013E-003, 6.7509644E+002, 2.4929105E+002
 1.1400000E+002, 8.0000013E-003, 6.7607568E+002, 2.5217848E+002
 1.1500000E+002, 8.0000013E-003, 6.7705048E+002, 2.5505107E+002
 1.1600000E+002, 8.0000013E-003, 6.7801318E+002, 2.5790829E+002
 1.1700000E+002, 8.0000013E-003, 6.7897021E+002, 2.6074960E+002
 1.1800000E+002, 8.0000013E-003, 6.7990912E+002, 2.6357486E+002
 1.1900000E+002, 8.0000013E-003, 6.8084271E+002, 2.6638364E+002
 1.2000000E+002, 8.0000013E-003, 6.8176080E+002, 2.6917551E+002
 1.2100000E+002, 8.0000013E-003, 6.8266858E+002, 2.7195001E+002
 1.2200000E+002, 8.0000013E-003, 6.8356934E+002, 2.7470670E+002
 1.2300000E+002, 8.0000013E-003, 6.8446069E+002, 2.7744513E+002
 1.2400000E+002, 8.0000013E-003, 6.8534271E+002, 2.8016470E+002
 1.2500000E+002, 8.0000013E-003, 6.8621771E+002, 2.8286523E+002
 1.2600000E+002, 8.0000013E-003, 6.8708936E+002, 2.8554633E+002
 1.2700000E+002, 8.0000013E-003, 6.8795062E+002, 2.8820737E+002
 1.2800000E+002, 8.0000013E-003, 6.8880798E+002, 2.9084778E+002
 1.2900000E+002, 8.0000013E-003, 6.8965863E+002, 2.9346722E+002
 1.3000000E+002, 8.0000013E-003, 6.9050122E+002, 2.9606506E+002
 1.3100000E+002, 8.0000013E-003, 6.9133936E+002, 2.9864072E+002
 1.3200000E+002, 8.0000013E-003, 6.9216888E+002, 3.0119376E+002
 1.3300000E+002, 8.0000013E-003, 6.9298962E+002, 3.0372327E+002
 1.3400000E+002, 8.0000013E-003, 6.9380701E+002, 3.0622870E+002
 1.3500000E+002, 8.0000013E-003, 6.9461176E+002, 3.0870914E+002
 1.3600000E+002, 8.0000013E-003, 6.9541162E+002, 3.1116367E+002
 1.3700000E+002, 8.0000013E-003, 6.9620575E+002, 3.1359152E+002
 1.3800000E+002, 8.0000013E-003, 6.9698981E+002, 3.1599179E+002
 1.3900000E+002, 8.0000013E-003, 6.9776892E+002, 3.1836362E+002
 1.4000000E+002, 8.0000013E-003, 6.9854114E+002, 3.2070605E+002
 1.4100000E+002, 8.0000013E-003, 6.9930823E+002, 3.2301804E+002
 1.4200000E+002, 8.0000013E-003, 7.0007056E+002, 3.2529846E+002
 1.4300000E+002, 8.0000013E-003, 7.0082715E+002, 3.2754654E+002
 1.4400000E+002, 8.0000013E-003, 7.0157935E+002, 3.2976126E+002
 1.4500000E+002, 8.0000013E-003, 7.0232281E+002, 3.3194113E+002
 1.4600000E+002, 8.0000013E-003, 7.0306226E+002, 3.3408530E+002
 1.4700000E+002, 8.0000013E-003, 7.0379620E+002, 3.3619266E+002
 1.4800000E+002, 8.0000013E-003, 7.0452332E+002, 3.3826190E+002
 1.4900000E+002, 8.0000013E-003, 7.0524664E+002, 3.4029208E+002
 1.5000000E+002, 8.0000013E-003, 7.0596246E+002, 3.4228207E+002
 1.5100000E+002, 8.0000013E-003, 7.0667145E+002, 3.4423093E+002
 1.5200000E+002, 8.0000013E-003, 7.0737561E+002, 3.4613754E+002
 1.5300000E+002, 8.0000013E-003, 7.0807324E+002, 3.4800104E+002
 1.5400000E+002, 8.0000013E-003, 7.0876593E+002, 3.4982086E+002
 1.5500000E+002, 8.0000013E-003, 7.0945667E+002, 3.5159637E+002
 1.5600000E+002, 8.0000013E-003, 7.1013770E+002, 3.5332672E+002
 1.5700000E+002, 8.0000013E-003, 7.1081586E+002, 3.5501181E+002
 1.5800000E+002, 8.0000013E-003, 7.1148767E+002, 3.5665167E+002
 1.5900000E+002, 8.0000013E-003, 7.1215759E+002, 3.5824579E+002
 1.6000000E+002, 8.0000013E-003, 7.1281818E+002, 3.5979425E+002
 1.6100000E+002, 8.0000013E-003, 7.1347687E+002, 3.6129745E+002
 1.6200000E+002, 8.0000013E-003, 7.1412976E+002, 3.6275626E+002
 1.6300000E+002, 8.0000013E-003, 7.1477527E+002, 3.6417114E+002
 1.6400000E+002, 8.0000013E-003, 7.1541888E+002, 3.6554288E+002
 1.6500000E+002, 8.0000013E-003, 7.1605603E+002, 3.6687289E+002
 1.6600000E+002, 8.0000013E-003, 7.1668622E+002, 3.6816223E+002
 1.6700000E+002, 8.0000013E-003, 7.1731750E+002, 3.6941260E+002
 1.6800000E+002, 8.0000013E-003, 7.1793750E+002, 3.7062570E+002
 1.6900000E+002, 8.0000013E-003, 7.1855560E+002, 3.7180334E+002
 1.7000000E+002, 8.0000013E-003, 7.1916663E+002, 3.7294748E+002
 1.7100000E+002, 8.0000013E-003, 7.1977399E+002, 3.7406012E+002
 1.7200000E+002, 8.0000013E-003, 7.2037701E+002, 3.7514359E+002
 1.7300000E+002, 8.0000013E-003, 7.2097406E+002, 3.7619995E+002
 1.7400000E+002, 8.0000022E-003, 7.2156726E+002, 3.7723148E+002
 1.7500000E+002, 8.0000022E-003, 7.2215533E+002, 3.7824103E+002
 1.7600000E+002, 8.0000022E-003, 7.2274084E+002, 3.7923056E+002
 1.7700000E+002, 8.0000022E-003, 7.2331757E+002, 3.8020273E+002
 1.7800000E+002, 8.0000022E-003, 7.2389252E+002, 3.8115994E+002
 1.7900000E+002, 8.0000022E-003, 7.2446210E+002, 3.8210452E+002
 1.8000000E+002, 8.0000022E-003, 7.2502692E+002, 3.8303879E+002
 1.8100000E+002, 8.0000022E-003, 7.2558722E+002, 3.8396527E+002
 1.8200000E+002, 8.0000022E-003, 7.2614148E+002, 3.8488589E+002
 1.8300000E+002, 8.0000022E-003, 7.2669470E+002, 3.8580307E+002
 1.8400000E+002, 8.0000022E-003, 7.2723999E+002, 3.8671921E+002
 1.8500000E+002, 8.0000022E-003, 7.2778168E+002, 3.8763602E+002
 1.8600000E+002, 8.0000022E-003, 7.2832098E+002, 3.8855582E+002
 1.8700000E+002, 8.0000022E-003, 7.2885168E+002, 3.8948032E+002
 1.8800000E+002, 8.0000022E-003, 7.2938214E+002, 3.9041174E+002
 1.8900000E+002, 8.0000022E-003, 7.2990643E+002, 3.9135214E+002
 1.9000000E+002, 8.0000022E-003, 7.3042432E+002, 3.9230313E+002
 1.9100000E+002, 8.0000022E-003, 7.3094122E+002, 3.9326685E+002
 1.9200000E+002, 8.0000022E-003, 7.3145319E+002, 3.9424484E+002
 1.9300000E+002, 8.0000022E-003, 7.3195972E+002, 3.9523923E+002
 1.9400000E+002, 8.0000022E-003, 7.3246399E+002, 3.9625143E+002
 1.9500000E+002, 8.0000022E-003, 7.3296338E+002, 3.9728391E+002
 1.9600000E+002, 8.0000022E-003, 7.3345868E+002, 3.9833823E+002
 1.9700000E+002, 8.0000022E-003, 7.3394989E+002, 3.9941629E+002
 1.9800000E+002, 8.0000022E-003, 7.3443640E+002, 4.0052023E+002
 1.9900000E+002, 8.0000022E-003, 7.3492023E+002, 4.0165192E+002
 2.0000000E+002, 8.0000022E-003, 7.3540192E+002, 4.0281369E+002
 2.0100000E+002, 8.0000022E-003, 7.3587677E+002, 4.0400763E+002
 2.0200000E+002, 8.0000022E-003, 7.3634839E+002, 4.0523599E+002
 2.0300000E+002, 8.0000022E-003, 7.3681854E+002, 4.0650168E+002
 2.0400000E+002, 8.0000022E-003, 7.3728442E+002, 4.0780707E+002
 2.0500000E+002, 8.0000022E-003, 7.3774500E+002, 4.0915488E+002
 2.0600000E+002, 8.0000022E-003, 7.3820538E+002, 4.1054822E+002
 2.0700000E+002, 8.0000022E-003, 7.3866144E+002, 4.1199014E+002
 2.0800000E+002, 8.0000022E-003, 7.3911090E+002, 4.1348450E+002
 2.0900000E+002, 8.0000022E-003, 7.3956287E+002, 4.1503473E+002
 2.1000000E+002, 8.0000022E-003, 7.4000763E+002, 4.1664487E+002
 2.1100000E+002, 8.0000022E-003, 7.4045129E+002, 4.1831903E+002
 2.1200000E+002, 8.0000022E-003, 7.4089270E+002, 4.2006192E+002
 2.1300000E+002, 8.0000022E-003, 7.4132916E+002, 4.2187769E+002
 2.1400000E+002, 8.0000022E-003, 7.4176428E+002, 4.2377179E+002
 2.1500000E+002, 8.0000022E-003, 7.4219818E+002, 4.2574915E+002
 2.1600000E+002, 8.0000022E-003, 7.4262634E+002, 4.2781528E+002
 2.1700000E+002, 8.0000022E-003, 7.4305353E+002, 4.2997507E+002
 2.1800000E+002, 8.0000022E-003, 7.4348108E+002, 4.3223358E+002
 2.1900000E+002, 8.0000022E-003, 7.4390228E+002, 4.3459500E+002
 2.2000000E+002, 8.0000022E-003, 7.4432391E+002, 4.3706299E+002
 2.2100000E+002, 8.0000022E-003, 7.4474384E+002, 4.3964014E+002
 2.2200000E+002, 8.0000022E-003, 7.4516193E+002, 4.4232602E+002
 2.2300000E+002, 8.0000032E-003, 7.4557611E+002, 4.4511768E+002
 2.2400000E+002, 8.0000032E-003, 7.4599152E+002, 4.4800851E+002
 2.2500000E+002, 8.0000032E-003, 7.4640411E+002, 4.5098721E+002
 2.2600000E+002, 8.0000032E-003, 7.4681464E+002, 4.5403723E+002
 2.2700000E+002, 8.0000032E-003, 7.4722571E+002, 4.5713669E+002
 2.2800000E+002, 8.0000032E-003, 7.4763501E+002, 4.6025851E+002
 2.2900000E+002, 8.0000032E-003, 7.4804333E+002, 4.6337466E+002
 2.3000000E+002, 8.0000032E-003, 7.4845111E+002, 4.6645767E+002
 2.3100000E+002, 8.0000032E-003, 7.4885840E+002, 4.6948615E+002
 2.3200000E+002, 8.0000032E-003, 7.4926532E+002, 4.7244666E+002
 2.3300000E+002, 8.0000032E-003, 7.4967297E+002, 4.7533609E+002
 2.3400000E+002, 8.0000032E-003, 7.5007861E+002, 4.7815851E+002
 2.3500000E+002, 8.0000032E-003, 7.5048547E+002, 4.8092136E+002
 2.3600000E+002, 8.0000032E-003, 7.5089355E+002, 4.8363217E+002
 2.3700000E+002, 8.0000032E-003, 7.5130115E+002, 4.8629688E+002
 2.3800000E+002, 8.0000032E-003, 7.5170844E+002, 4.8891956E+002
 2.3900000E+002, 8.0000032E-003, 7.5211835E+002, 4.9150388E+002
 2.4000000E+002, 8.0000032E-003, 7.5252826E+002, 4.9405228E+002
 2.4100000E+002, 8.0000032E-003, 7.5293903E+002, 4.9656705E+002
 2.4200000E+002, 8.0000032E-003, 7.5335059E+002, 4.9905029E+002
 2.4300000E+002, 8.0000032E-003, 7.5376355E+002, 5.0150381E+002
 2.4400000E+002, 8.0000032E-003, 7.5417676E+002, 5.0392877E+002
 2.4500000E+002, 8.0000032E-003, 7.5459399E+002, 5.0632654E+002
 2.4600000E+002, 8.0000032E-003, 7.5500909E+002, 5.0869827E+002
 2.4700000E+002, 8.0000032E-003, 7.5542688E+002, 5.1104489E+002
 2.4800000E+002, 8.0000032E-003, 7.5584631E+002, 5.1336761E+002
 2.4900000E+002, 8.0000032E-003, 7.5626398E+002, 5.1566705E+002
 2.5000000E+002, 8.0000032E-003, 7.5668457E+002, 5.1794409E+002
 2.5100000E+002, 8.0000032E-003, 7.5710675E+002, 5.2019934E+002
 2.5200000E+002, 8.0000032E-003, 7.5752740E+002, 5.2243353E+002
 2.5300000E+002, 8.0000032E-003, 7.5795013E+002, 5.2464722E+002
 2.5400000E+002, 8.0000032E-003, 7.5837366E+002, 5.2684094E+002
 2.5500000E+002, 8.0000032E-003, 7.5879730E+002, 5.2901526E+002
 2.5600000E+002, 8.0000032E-003, 7.5921985E+002, 5.3117072E+002
 2.5700000E+002, 8.0000032E-003, 7.5964520E+002, 5.3330762E+002
 2.5800000E+002, 8.0000032E-003, 7.6006897E+002, 5.3542651E+002
 2.5900000E+002, 8.0000032E-003, 7.6049219E+002, 5.3752771E+002
 2.6000000E+002, 8.0000032E-003, 7.6091754E+002, 5.3961157E+002
 2.6100000E+002, 8.0000032E-003, 7.6134167E+002, 5.4167853E+002
 2.6200000E+002, 8.0000032E-003, 7.6176410E+002, 5.4372894E+002
 2.6300000E+002, 8.0000032E-003, 7.6218994E+002, 5.4576312E+002
 2.6400000E+002, 8.0000032E-003, 7.6261298E+002, 5.4778125E+002
 2.6500000E+002, 8.0000032E-003, 7.6303595E+002, 5.4978375E+002
 2.6600000E+002, 8.0000032E-003, 7.6345782E+002, 5.5177081E+002
 2.6700000E+002, 8.0000032E-003, 7.6387946E+002, 5.5374268E+002
 2.6800000E+002, 8.0000032E-003, 7.6430035E+002, 5.5569965E+002
 2.6900000E+002, 8.0000032E-003, 7.6471948E+002, 5.5764191E+002
 2.7000000E+002, 8.0000032E-003, 7.6513867E+002, 5.5956970E+002
 2.7100000E+002, 8.0000032E-003, 7.6555676E+002, 5.6148328E+002
 2.7200000E+002, 8.0000032E-003, 7.6597357E+002, 5.6338275E+002
 2.7300000E+002, 8.0000032E-003, 7.6638983E+002, 5.6526843E+002
 2.7400000E+002, 8.0000032E-003, 7.6680444E+002, 5.6714056E+002
 2.7500000E+002, 8.0000032E-003, 7.6721936E+002, 5.6899915E+002
 2.7600000E+002, 8.0000032E-003, 7.6763062E+002, 5.7084448E+002
 2.7700000E+002, 8.0000032E-003, 7.6804236E+002, 5.7267670E+002
 2.7800000E+002, 8.0000032E-003, 7.6845306E+002, 5.7449579E+002
 2.7900000E+002, 8.0000032E-003, 7.6886182E+002, 5.7630219E+002
 2.8000000E+002, 8.0000032E-003, 7.6926794E+002, 5.7809589E+002
 2.8100000E+002, 8.0000032E-003, 7.6967493E+002, 5.7987708E+002
 2.8200000E+002, 8.0000032E-003, 7.7007886E+002, 5.8164594E+002
 2.8300000E+002, 8.0000032E-003, 7.7048114E+002, 5.8340259E+002
 2.8400000E+002, 8.0000032E-003, 7.7088318E+002, 5.8514722E+002
 2.8500000E+002, 8.0000032E-003, 7.7128271E+002, 5.8687976E+002
 2.8600000E+002, 8.0000032E-003, 7.7168085E+002, 5.8860052E+002
 2.8700000E+002, 8.0000032E-003, 7.7207837E+002, 5.9030963E+002
 2.8800000E+002, 8.0000032E-003, 7.7247211E+002, 5.9200702E+002
 2.8900000E+002, 8.0000032E-003, 7.7286560E+002, 5.9369299E+002
 2.9000000E+002, 8.0000032E-003, 7.7325793E+002, 5.9536761E+002
 2.9100000E+002, 8.0000032E-003, 7.7364832E+002, 5.9703094E+002
 2.9200000E+002, 8.0000032E-003, 7.7403546E+002, 5.9868311E+002
 2.9300000E+002, 8.0000032E-003, 7.7442194E+002, 6.0032410E+002
 2.9400000E+002, 8.0000032E-003, 7.7480634E+002, 6.0195416E+002
 2.9500000E+002, 8.0000032E-003, 7.7518884E+002, 6.0357336E+002
 2.9600000E+002, 8.0000032E-003, 7.7557123E+002, 6.0518182E+002
 2.9700000E+002, 8.0000032E-003, 7.7595032E+002, 6.0677960E+002
 2.9800000E+002, 8.0000032E-003, 7.7632666E+002, 6.0836682E+002
 2.9900000E+002, 8.0000032E-003, 7.7670325E+002, 6.0994348E+002
 3.0000000E+002, 8.0000032E-003, 7.7707666E+002, 6.1150970E+002
 3.0100000E+002, 8.0000032E-003, 7.7744897E+002, 6.1306555E+002
 3.0200000E+002, 8.0000032E-003, 7.7781964E+002, 6.1461115E+002
 3.0300000E+002, 8.0000032E-003, 7.7818768E+002, 6.1614655E+002
 3.0400000E+002, 8.0000032E-003, 7.7855432E+002, 6.1767194E+002
 3.0500000E+002, 8.0000032E-003, 7.7891870E+002, 6.1918732E+002
 3.0600000E+002, 8.0000032E-003, 7.7928143E+002, 6.2069275E+002
 3.0700000E+002, 8.0000032E-003, 7.7964252E+002, 6.2218823E+002
 3.0800000E+002, 8.0000032E-003, 7.8000232E+002, 6.2367401E+002
 3.0900000E+002, 8.0000032E-003, 7.8035980E+002, 6.2515002E+002
 3.1000000E+002, 8.0000032E-003, 7.8071423E+002, 6.2661633E+002
 3.1100000E+002, 8.0000032E-003, 7.8106866E+002, 6.2807306E+002
 3.1200000E+002, 8.0000032E-003, 7.8141968E+002, 6.2952032E+002
 3.1300000E+002, 8.0000032E-003, 7.8176965E+002, 6.3095807E+002
 3.1400000E+002, 8.0000032E-003, 7.8211823E+002, 6.3238647E+002
 3.1500000E+002, 8.0000032E-003, 7.8246313E+002, 6.3380566E+002
 3.1600000E+002, 8.0000032E-003, 7.8280701E+002, 6.3521545E+002
 3.1700000E+002, 8.0000032E-003, 7.8315063E+002, 6.3661621E+002
 3.1800000E+002, 8.0000032E-003, 7.8348987E+002, 6.3800769E+002
 3.1900000E+002, 8.0000032E-003, 7.8382849E+002, 6.3939026E+002
 3.2000000E+002, 8.0000032E-003, 7.8416553E+002, 6.4076373E+002
 3.2100000E+002, 8.0000032E-003, 7.8450061E+002, 6.4212817E+002
 3.2200000E+002, 8.0000032E-003, 7.8483337E+002, 6.4348383E+002
 3.2300000E+002, 8.0000032E-003, 7.8516534E+002, 6.4483063E+002
 3.2400000E+002, 8.0000032E-003, 7.8549469E+002, 6.4616864E+002
 3.2500000E+002, 8.0000032E-003, 7.8582123E+002, 6.4749805E+002
 3.2600000E+002, 8.0000032E-003, 7.8614777E+002, 6.4881879E+002
 3.2700000E+002, 8.0000032E-003, 7.8647125E+002, 6.5013080E+002
 3.2800000E+002, 8.0000032E-003, 7.8679315E+002, 6.5143439E+002
 3.2900000E+002, 8.0000032E-003, 7.8711365E+002, 6.5272937E+002
 3.3000000E+002, 8.0000032E-003, 7.8743256E+002, 6.5401605E+002
 3.3100000E+002, 8.0000032E-003, 7.8774799E+002, 6.5529425E+002
 3.3200000E+002, 8.0000032E-003, 7.8806360E+002, 6.5656427E+002
 3.3300000E+002, 8.0000032E-003, 7.8837616E+002, 6.5782593E+002
 3.3400000E+002, 8.0000032E-003, 7.8868756E+002, 6.5907935E+002
 3.3500000E+002, 8.0000032E-003, 7.8899628E+002, 6.6032458E+002
 3.3600000E+002, 8.0000032E-003, 7.8930414E+002, 6.6156171E+002
 3.3700000E+002, 8.0000032E-003, 7.8960950E+002, 6.6279077E+002
 3.3800000E+002, 8.0000032E-003, 7.8991443E+002, 6.6401178E+002
 3.3900000E+002, 8.0000032E-003, 7.9021692E+002, 6.6522485E+002
 3.4000000E+002, 8.0000032E-003, 7.9051660E+002, 6.6643005E+002
 3.4100000E+002, 8.0000032E-003, 7.9081708E+002, 6.6762738E+002
 3.4200000E+002, 8.0000032E-003, 7.9111365E+002, 6.6881689E+002
 3.4300000E+002, 8.0000032E-003, 7.9140924E+002, 6.6999866E+002
 3.4400000E+002, 8.0000032E-003, 7.9170227E+002, 6.7117267E+002
 3.4500000E+002, 8.0000032E-003, 7.9199432E+002, 6.7233899E+002
 3.4600000E+002, 8.0000032E-003, 7.9228394E+002, 6.7349774E+002
 3.4700000E+002, 8.0000032E-003, 7.9257336E+002, 6.7464886E+002
 3.4800000E+002, 8.0000032E-003, 7.9285889E+002, 6.7579248E+002
 3.4900000E+002, 8.0000032E-003, 7.9314417E+002, 6.7692859E+002
 3.5000000E+002, 8.0000032E-003, 7.9342822E+002, 6.7805725E+002
 3.5100000E+002, 8.0000032E-003, 7.9370953E+002, 6.7917859E+002
 3.5200000E+002, 8.0000032E-003, 7.9398962E+002, 6.8029260E+002
 3.5300000E+002, 8.0000032E-003, 7.9426849E+002, 6.8139929E+002
 3.5400000E+002, 8.0000032E-003, 7.9454553E+002, 6.8249860E+002
 3.5500000E+002, 8.0000032E-003, 7.9481927E+002, 6.8359082E+002
 3.5600000E+002, 8.0000032E-003, 7.9509357E+002, 6.8467590E+002
 3.5700000E+002, 8.0000032E-003, 7.9536536E+002, 6.8575378E+002
 3.5800000E+002, 8.0000032E-003, 7.9563519E+002, 6.8682458E+002
 3.5900000E+002, 8.0000032E-003, 7.9590442E+002, 6.8788843E+002
 3.6000000E+002, 8.0000032E-003, 7.9617145E+002, 6.8894525E+002
 3.6100000E+002, 8.0000032E-003, 7.9643567E+002, 6.8999506E+002
 3.6200000E+002, 8.0000032E-003, 7.9669989E+002, 6.9103802E+002
 3.6300000E+002, 8.0000032E-003, 7.9696252E+002, 6.9207404E+002
 3.6400000E+002, 8.0000032E-003, 7.9722198E+002, 6.9310333E+002
 3.6500000E+002, 8.0000032E-003, 7.9748181E+002, 6.9412585E+002
 3.6600000E+002, 8.0000032E-003, 7.9773914E+002, 6.9514154E+002
 3.6700000E+002, 8.0000032E-003, 7.9799396E+002, 6.9615063E+002
 3.6800000E+002, 8.0000032E-003, 7.9824969E+002, 6.9715302E+002
 3.6900000E+002, 8.0000032E-003, 7.9850232E+002, 6.9814886E+002
 3.7000000E+002, 8.0000032E-003, 7.9875275E+002, 6.9913800E+002
 3.7100000E+002, 8.0000032E-003, 7.9900330E+002, 7.0012073E+002
 3.7200000E+002, 8.0000032E-003, 7.9925140E+002, 7.0109686E+002
 3.7300000E+002, 8.0000032E-003, 7.9949768E+002, 7.0206659E+002
 3.7400000E+002, 8.0000032E-003, 7.9974365E+002, 7.0302997E+002
 3.7500000E+002, 8.0000032E-003, 7.9998596E+002, 7.0398694E+002
 3.7600000E+002, 8.0000032E-003, 8.0022821E+002, 7.0493756E+002
 3.7700000E+002, 8.0000032E-003, 8.0046973E+002, 7.0588190E+002
 3.7800000E+002, 8.0000032E-003, 8.0070776E+002, 7.0681995E+002
 3.7900000E+002, 8.0000032E-003, 8.0094580E+002, 7.0775183E+002
 3.8000000E+002, 8.0000032E-003, 8.0118164E+002, 7.0867755E+002
 3.8100000E+002, 8.0000032E-003, 8.0141736E+002, 7.0959705E+002
 3.8200000E+002, 8.0000032E-003, 8.0165039E+002, 7.1051050E+002
 3.8300000E+002, 8.0000032E-003, 8.0188202E+002, 7.1141791E+002
 3.8400000E+002, 8.0000032E-003, 8.0211328E+002, 7.1231927E+002
 3.8500000E+002, 8.0000032E-003, 8.0234100E+002, 7.1321460E+002
 3.8600000E+002, 8.0000032E-003, 8.0256946E+002, 7.1410406E+002
 3.8700000E+002, 8.0000032E-003, 8.0279565E+002, 7.1498755E+002
 3.8800000E+002, 8.0000032E-003, 8.0302039E+002, 7.1586517E+002
 3.8900000E+002, 8.0000032E-003, 8.0324463E+002, 7.1673694E+002
 3.9000000E+002, 8.0000032E-003, 8.0346545E+002, 7.1760291E+002
 3.9100000E+002, 8.0000032E-003, 8.0368701E+002, 7.1846307E+002
 3.9200000E+002, 8.0000032E-003, 8.0390546E+002, 7.1931763E+002
 3.9300000E+002, 8.0000032E-003, 8.0412408E+002, 7.2016644E+002
 3.9400000E+002, 8.0000032E-003, 8.0433966E+002, 7.2100958E+002
 3.9500000E+002, 8.0000032E-003, 8.0455573E+002, 7.2184711E+002
 3.9600000E+002, 8.0000032E-003, 8.0476917E+002, 7.2267902E+002
 3.9700000E+002, 8.0000032E-003, 8.0498138E+002, 7.2350537E+002
 3.9800000E+002, 8.0000032E-003, 8.0519342E+002, 7.2432623E+002
 3.9900000E+002, 8.0000032E-003, 8.0540204E+002, 7.2514154E+002
 4.0000000E+002, 8.0000032E-003, 8.0561151E+002, 7.2595148E+002
 4.0100000E+002, 8.0000032E-003, 8.0581812E+002, 7.2675592E+002
 4.0200000E+002, 8.0000032E-003, 8.0602478E+002, 7.2755505E+002
 4.0300000E+002, 8.0000032E-003, 8.0622839E+002, 7.2834882E+002
 4.0400000E+002, 8.0000032E-003, 8.0643274E+002, 7.2913727E+002
 4.0500000E+002, 8.0000032E-003, 8.0663342E+002, 7.2992047E+002
 4.0600000E+002, 8.0000032E-003, 8.0683545E+002, 7.3069836E+002
 4.0700000E+002, 8.0000032E-003, 8.0703381E+002, 7.3147113E+002
 4.0800000E+002, 8.0000032E-003, 8.0723328E+002, 7.3223865E+002
 4.0900000E+002, 8.0000032E-003, 8.0742883E+002, 7.3300098E+002
 4.1000000E+002, 8.0000032E-003, 8.0762598E+002, 7.3375824E+002
 4.1100000E+002, 8.0000032E-003, 8.0781940E+002, 7.3451044E+002
 4.1200000E+002, 8.0000032E-003, 8.0801324E+002, 7.3525757E+002
 4.1300000E+002, 8.0000032E-003, 8.0820496E+002, 7.3599969E+002
 4.1400000E+002, 8.0000032E-003, 8.0839648E+002, 7.3673682E+002
 4.1500000E+002, 8.0000032E-003, 8.0858472E+002, 7.3746899E+002
 4.1600000E+002, 8.0000032E-003, 8.0877478E+002, 7.3819623E+002
 4.1700000E+002, 8.0000032E-003, 8.0896057E+002, 7.3891858E+002
 4.1800000E+002, 8.0000032E-003, 8.0914764E+002, 7.3963611E+002
 4.1900000E+002, 8.0000032E-003, 8.0933167E+002, 7.4034869E+002
 4.2000000E+002, 8.0000032E-003, 8.0951654E+002, 7.4105658E+002
 4.2100000E+002, 8.0000032E-003, 8.0969745E+002, 7.4175964E+002
 4.2200000E+002, 8.0000032E-003, 8.0987994E+002, 7.4245801E+002
 4.2300000E+002, 8.0000032E-003, 8.1005908E+002, 7.4315167E+002
 4.2400000E+002, 8.0000032E-003, 8.1023865E+002, 7.4384064E+002
 4.2500000E+002, 8.0000032E-003, 8.1041638E+002, 7.4452490E+002
 4.2600000E+002, 8.0000032E-003, 8.1059253E+002, 7.4520459E+002
 4.2700000E+002, 8.0000032E-003, 8.1076849E+002, 7.4587970E+002
 4.2800000E+002, 8.0000032E-003, 8.1094263E+002, 7.4655023E+002
 4.2900000E+002, 8.0000032E-003, 8.1111682E+002, 7.4721625E+002
 4.3000000E+002, 8.0000032E-003, 8.1128772E+002, 7.4787775E+002
 4.3100000E+002, 8.0000032E-003, 8.1146039E+002, 7.4853479E+002
 4.3200000E+002, 8.0000032E-003, 8.1162927E+002, 7.4918738E+002
 4.3300000E+002, 8.0000032E-003, 8.1179773E+002, 7.4983557E+002
 4.3400000E+002, 8.0000032E-003, 8.1196661E+002, 7.5047937E+002
 4.3500000E+002, 8.0000032E-003, 8.1213220E+002, 7.5111877E+002
 4.3600000E+002, 8.0000032E-003, 8.1229877E+002, 7.5175391E+002
 4.3700000E+002, 8.0000032E-003, 8.1246252E+002, 7.5238470E+002
 4.3800000E+002, 8.0000032E-003, 8.1262708E+002, 7.5301123E+002
 4.3900000E+002, 8.0000032E-003, 8.1278851E+002, 7.5363354E+002
 4.4000000E+002, 8.0000032E-003, 8.1295020E+002, 7.5425153E+002
 4.4100000E+002, 8.0000032E-003, 8.1311060E+002, 7.5486542E+002
 4.4200000E+002, 8.0000032E-003, 8.1326953E+002, 7.5547510E+002
 4.4300000E+002, 8.0000032E-003, 8.1342865E+002, 7.5608069E+002
 4.4400000E+002, 8.0000032E-003, 8.1358545E+002, 7.5668207E+002
 4.4500000E+002, 8.0000032E-003, 8.1374103E+002, 7.5727948E+002
 4.4600000E+002, 8.0000032E-003, 8.1389728E+002, 7.5787274E+002
 4.4700000E+002, 8.0000032E-003, 8.1405054E+002, 7.5846204E+002
 4.4800000E+002, 8.0000032E-003, 8.1420465E+002, 7.5904724E+002
 4.4900000E+002, 8.0000032E-003, 8.1435669E+002, 7.5962854E+002
 4.5000000E+002, 8.0000032E-003, 8.1450739E+002, 7.6020581E+002
 4.5100000E+002, 8.0000032E-003, 8.1465826E+002, 7.6077924E+002
 4.5200000E+002, 8.0000032E-003, 8.1480676E+002, 7.6134875E+002
 4.5300000E+002, 8.0000032E-003, 8.1495593E+002, 7.6191437E+002
 4.5400000E+002, 8.0000032E-003, 8.1510223E+002, 7.6247614E+002
 4.5500000E+002, 8.0000032E-003, 8.1524896E+002, 7.6303406E+002
 4.5600000E+002, 8.0000032E-003, 8.1539453E+002, 7.6358813E+002
 4.5700000E+002, 8.0000032E-003, 8.1553857E+002, 7.6413849E+002
 4.5800000E+002, 8.0000032E-003, 8.1568195E+002, 7.6468512E+002
 4.5900000E+002, 8.0000032E-003, 8.1582507E+002, 7.6522797E+002
 4.6000000E+002, 8.0000032E-003, 8.1596625E+002, 7.6576715E+002
 4.6100000E+002, 8.0000032E-003, 8.1610681E+002, 7.6630261E+002
 4.6200000E+002, 8.0000032E-003, 8.1624719E+002, 7.6683447E+002
 4.6300000E+002, 8.0000032E-003, 8.1638513E+002, 7.6736261E+002
 4.6400000E+002, 8.0000032E-003, 8.1652344E+002, 7.6788721E+002
 4.6500000E+002, 8.0000032E-003, 8.1666058E+002, 7.6840826E+002
 4.6600000E+002, 8.0000032E-003, 8.1679626E+002, 7.6892566E+002