s,kW,kW,kW,kW,kW,kW,kW,kW,kW,kW,kg/s,kg/s,Pa
Time,HRR,Q_RADI,Q_CONV,Q_COND,Q_DIFF,Q_PRES,Q_PART,Q_GEOM,Q_ENTH,Q_TOTAL,MLR_FUEL,MLR_TOTAL,ZONE_1
 0.0000000E+000, 0.0000000E+000, 0.0000000E+000, 0.0000000E+000, 0.0000000E+000, 0.0000000E+000, 0.0000000E+000, 0.0000000E+000, 0.0000000E+000, 0.0000000E+000, 0.0000000E+000, 0.0000000E+000, 0.0000000E+000,-5.8335687E-001
 1.0000000E+000, 0.0000000E+000, 0.0000000E+000, 0.0000000E+000,-2.1607163E-009,-2.3343213E-019, 0.0000000E+000, 0.0000000E+000, 0.0000000E+000, 0.0000000E+000,-2.1607163E-009, 0.0000000E+000, 1.6916877E-021,-5.8335687E-001
 2.0000000E+000, 0.0000000E+000, 0.0000000E+000, 0.0000000E+000, 9.6723575E-004,-2.1205056E-019, 0.0000000E+000, 0.0000000E+000, 0.0000000E+000, 0.0000000E+000, 9.6723575E-004, 0.0000000E+000, 1.6916868E-021,-5.8335687E-001
 3.0000000E+000, 0.0000000E+000, 0.0000000E+000, 0.0000000E+000, 2.4871108E-003, 1.1283056E-019, 0.0000000E+000, 0.0000000E+000, 0.0000000E+000, 0.0000000E+000, 2.4871108E-003, 0.0000000E+000, 3.4388027E-021,-5.8335687E-001
 4.0000000E+000, 0.0000000E+000, 0.0000000E+000, 0.0000000E+000, 3.4910407E-003,-1.9036748E-019, 0.0000000E+000, 0.0000000E+000, 0.0000000E+000, 0.0000000E+000, 3.4910407E-003, 0.0000000E+000, 1.0783695E-020,-5.8335687E-001
 5.0000000E+000, 0.0000000E+000, 0.0000000E+000, 0.0000000E+000, 4.3200499E-003,-1.5698976E-019, 0.0000000E+000, 0.0000000E+000, 0.0000000E+000, 0.0000000E+000, 4.3200499E-003, 0.0000000E+000, 3.3120061E-020,-5.8335687E-001
 6.0000000E+000, 0.0000000E+000, 0.0000000E+000, 0.0000000E+000, 5.0303784E-003,-2.9195304E-019, 0.0000000E+000, 0.0000000E+000, 0.0000000E+000, 0.0000000E+000, 5.0303784E-003, 0.0000000E+000, 8.7556895E-020,-5.8335687E-001
 7.0000000E+000, 0.0000000E+000, 0.0000000E+000, 0.0000000E+000, 5.6615417E-003,-7.3492098E-019, 0.0000000E+000, 0.0000000E+000, 0.0000000E+000, 0.0000000E+000, 5.6615417E-003, 0.0000000E+000, 2.0471487E-019,-5.8335687E-001
 8.0000000E+000, 0.0000000E+000, 0.0000000E+000, 0.0000000E+000, 6.2327837E-003,-1.5885812E-018, 0.0000000E+000, 0.0000000E+000, 0.0000000E+000, 0.0000000E+000, 6.2327837E-003, 0.0000000E+000, 4.3368156E-019,-5.8335687E-001
 9.0000000E+000, 0.0000000E+000, 0.0000000E+000, 0.0000000E+000, 6.7573649E-003,-2.6733895E-018, 0.0000000E+000, 0.0000000E+000, 0.0000000E+000, 0.0000000E+000, 6.7573649E-003, 0.0000000E+000, 8.5060701E-019,-5.8335687E-001
 1.0000000E+001, 0.0000000E+000, 0.0000000E+000, 0.0000000E+000, 7.2440090E-003,-5.1914231E-018, 0.0000000E+000, 0.0000000E+000, 0.0000000E+000, 0.0000000E+000, 7.2440090E-003, 0.0000000E+000, 1.5678646E-018,-5.8335687E-001
 1.1000000E+001, 0.0000000E+000, 0.0000000E+000, 0.0000000E+000, 7.6991355E-003,-9.0145297E-018, 0.0000000E+000, 0.0000000E+000, 0.0000000E+000, 0.0000000E+000, 7.6991355E-003, 0.0000000E+000, 2.7462019E-018,-5.8335687E-001
 1.2000000E+001, 0.0000000E+000, 0.0000000E+000, 0.0000000E+000, 8.1274890E-003,-1.5331779E-017, 0.0000000E+000, 0.0000000E+000, 0.0000000E+000, 0.0000000E+000, 8.1274890E-003, 0.0000000E+000, 4.6095356E-018,-5.8335687E-001
 1.3000000E+001, 0.0000000E+000, 0.0000000E+000, 0.0000000E+000, 8.5327262E-003,-2.5206576E-017, 0.0000000E+000, 0.0000000E+000, 0.0000000E+000, 0.0000000E+000, 8.5327262E-003, 0.0000000E+000, 7.4610253E-018,-5.8335687E-001
 1.4000000E+001, 0.0000000E+000, 0.0000000E+000, 0.0000000E+000, 8.9177771E-003,-3.9576110E-017, 0.0000000E+000, 0.0000000E+000, 0.0000000E+000, 0.0000000E+000, 8.9177771E-003, 0.0000000E+000, 1.1704981E-017,-5.8335687E-001
 1.5000000E+001, 0.0000000E+000, 0.0000000E+000, 0.0000000E+000, 9.2849723E-003,-6.0580910E-017, 0.0000000E+000, 0.0000000E+000, 0.0000000E+000, 0.0000000E+000, 9.2849723E-003, 0.0000000E+000, 1.7868729E-017,-5.8335687E-001
 1.6000000E+001, 0.0000000E+000, 0.0000000E+000, 0.0000000E+000, 9.6362272E-003,-9.1094490E-017, 0.0000000E+000, 0.0000000E+000, 0.0000000E+000, 0.0000000E+000, 9.6362272E-003, 0.0000000E+000, 2.6630767E-017,-5.8335687E-001
 1.7000000E+001, 0.0000000E+000, 0.0000000E+000, 0.0000000E+000, 9.9731758E-003,-1.3356465E-016, 0.0000000E+000, 0.0000000E+000, 0.0000000E+000, 0.0000000E+000, 9.9731758E-003, 0.0000000E+000, 3.8850381E-017,-5.8335687E-001
 1.8000000E+001, 0.0000000E+000, 0.0000000E+000, 0.0000000E+000, 1.0297135E-002,-1.9318044E-016, 0.0000000E+000, 0.0000000E+000, 0.0000000E+000, 0.0000000E+000, 1.0297135E-002, 0.0000000E+000, 5.5608048E-017,-5.8335687E-001
 1.9000000E+001, 0.0000000E+000, 0.0000000E+000, 0.0000000E+000, 1.0609237E-002,-2.7356247E-016, 0.0000000E+000, 0.0000000E+000, 0.0000000E+000, 0.0000000E+000, 1.0609237E-002, 0.0000000E+000, 7.8228736E-017,-5.8335687E-001
 2.0000000E+001, 0.0000000E+000, 0.0000000E+000, 0.0000000E+000, 1.0910531E-002,-3.8123805E-016, 0.0000000E+000, 0.0000000E+000, 0.0000000E+000, 0.0000000E+000, 1.0910531E-002, 0.0000000E+000, 1.0835085E-016,-5.8335687E-001
 2.1000000E+001, 0.0000000E+000, 0.0000000E+000, 0.0000000E+000, 1.1201848E-002,-5.2385151E-016, 0.0000000E+000, 0.0000000E+000, 0.0000000E+000, 0.0000000E+000, 1.1201848E-002, 0.0000000E+000, 1.4795678E-016,-5.8335687E-001
 2.2000000E+001, 0.0000000E+000, 0.0000000E+000, 0.0000000E+000, 1.1483932E-002,-7.1075454E-016, 0.0000000E+000, 0.0000000E+000, 0.0000000E+000, 0.0000000E+000, 1.1483932E-002, 0.0000000E+000, 1.9942496E-016,-5.8335687E-001
 2.3000000E+001, 0.0000000E+000, 0.0000000E+000, 0.0000000E+000, 1.1757475E-002,-9.5329638E-016, 0.0000000E+000, 0.0000000E+000, 0.0000000E+000, 0.0000000E+000, 1.1757475E-002, 0.0000000E+000, 2.6560314E-016,-5.8335687E-001
 2.4000000E+001, 0.0000000E+000, 0.0000000E+000, 0.0000000E+000, 1.2023043E-002,-1.2639816E-015, 0.0000000E+000, 0.0000000E+000, 0.0000000E+000, 0.0000000E+000, 1.2023043E-002, 0.0000000E+000, 3.4987158E-016,-5.8335687E-001
 2.5000000E+001, 0.0000000E+000, 0.0000000E+000, 0.0000000E+000, 1.2281135E-002,-1.6570091E-015, 0.0000000E+000, 0.0000000E+000, 0.0000000E+000, 0.0000000E+000, 1.2281135E-002, 0.0000000E+000, 4.5618007E-016,-5.8335687E-001
 2.6000000E+001, 0.0000000E+000, 0.0000000E+000, 0.0000000E+000, 1.2532269E-002,-2.1543926E-015, 0.0000000E+000, 0.0000000E+000, 0.0000000E+000, 0.0000000E+000, 1.2532269E-002, 0.0000000E+000, 5.8916415E-016,-5.8335687E-001
 2.7000000E+001, 0.0000000E+000, 0.0000000E+000, 0.0000000E+000, 1.2776864E-002,-2.7727747E-015, 0.0000000E+000, 0.0000000E+000, 0.0000000E+000, 0.0000000E+000, 1.2776864E-002, 0.0000000E+000, 7.5426726E-016,-5.8335687E-001
 2.8000000E+001, 0.0000000E+000, 0.0000000E+000, 0.0000000E+000, 1.3015257E-002,-3.5435194E-015, 0.0000000E+000, 0.0000000E+000, 0.0000000E+000, 0.0000000E+000, 1.3015257E-002, 0.0000000E+000, 9.5767853E-016,-5.8335687E-001
 2.9000000E+001, 0.0000000E+000, 0.0000000E+000, 0.0000000E+000, 1.3247838E-002,-4.4878277E-015, 0.0000000E+000, 0.0000000E+000, 0.0000000E+000, 0.0000000E+000, 1.3247838E-002, 0.0000000E+000, 1.2065711E-015,-5.8335687E-001
 3.0000000E+001, 0.0000000E+000, 0.0000000E+000, 0.0000000E+000, 1.3474900E-002,-5.6497969E-015, 0.0000000E+000, 0.0000000E+000, 0.0000000E+000, 0.0000000E+000, 1.3474900E-002, 0.0000000E+000, 1.5092374E-015,-5.8335687E-001
 3.1000000E+001, 0.0000000E+000, 0.0000000E+000, 0.0000000E+000, 1.3696719E-002,-7.0541693E-015, 0.0000000E+000, 0.0000000E+000, 0.0000000E+000, 0.0000000E+000, 1.3696719E-002, 0.0000000E+000, 1.8749118E-015,-5.8335687E-001
 3.2000000E+001, 0.0000000E+000, 0.0000000E+000, 0.0000000E+000, 1.3913602E-002,-8.7632100E-015, 0.0000000E+000, 0.0000000E+000, 0.0000000E+000, 0.0000000E+000, 1.3913602E-002, 0.0000000E+000, 2.3143268E-015,-5.8335687E-001
 3.3000000E+001, 0.0000000E+000, 0.0000000E+000, 0.0000000E+000, 1.4125747E-002,-1.0804760E-014, 0.0000000E+000, 0.0000000E+000, 0.0000000E+000, 0.0000000E+000, 1.4125747E-002, 0.0000000E+000, 2.8395133E-015,-5.8335687E-001
 3.4000000E+001, 0.0000000E+000, 0.0000000E+000, 0.0000000E+000, 1.4333388E-002,-1.3244964E-014, 0.0000000E+000, 0.0000000E+000, 0.0000000E+000, 0.0000000E+000, 1.4333388E-002, 0.0000000E+000, 3.4638051E-015,-5.8335687E-001
 3.5000000E+001, 0.0000000E+000, 0.0000000E+000, 0.0000000E+000, 1.4536769E-002,-1.6172596E-014, 0.0000000E+000, 0.0000000E+000, 0.0000000E+000, 0.0000000E+000, 1.4536769E-002, 0.0000000E+000, 4.2025986E-015,-5.8335687E-001
 3.6000000E+001, 0.0000000E+000, 0.0000000E+000, 0.0000000E+000, 1.4736042E-002,-1.9615432E-014, 0.0000000E+000, 0.0000000E+000, 0.0000000E+000, 0.0000000E+000, 1.4736042E-002, 0.0000000E+000, 5.0728306E-015,-5.8335687E-001
 3.7000000E+001, 0.0000000E+000, 0.0000000E+000, 0.0000000E+000, 1.4931384E-002,-2.3673179E-014, 0.0000000E+000, 0.0000000E+000, 0.0000000E+000, 0.0000000E+000, 1.4931384E-002, 0.0000000E+000, 6.0932029E-015,-5.8335687E-001
 3.8000000E+001, 0.0000000E+000, 0.0000000E+000, 0.0000000E+000, 1.5123002E-002,-2.8436523E-014, 0.0000000E+000, 0.0000000E+000, 0.0000000E+000, 0.0000000E+000, 1.5123002E-002, 0.0000000E+000, 7.2849043E-015,-5.8335687E-001
 3.9000000E+001, 0.0000000E+000, 0.0000000E+000, 0.0000000E+000, 1.5311040E-002,-3.4063582E-014, 0.0000000E+000, 0.0000000E+000, 0.0000000E+000, 0.0000000E+000, 1.5311040E-002, 0.0000000E+000, 8.6714794E-015,-5.8335687E-001
 4.0000000E+001, 0.0000000E+000, 0.0000000E+000, 0.0000000E+000, 1.5495597E-002,-4.0563816E-014, 0.0000000E+000, 0.0000000E+000, 0.0000000E+000, 0.0000000E+000, 1.5495597E-002, 0.0000000E+000, 1.0278314E-014,-5.8335687E-001
 4.1000000E+001, 0.0000000E+000, 0.0000000E+000, 0.0000000E+000, 1.5676845E-002,-4.8107156E-014, 0.0000000E+000, 0.0000000E+000, 0.0000000E+000, 0.0000000E+000, 1.5676845E-002, 0.0000000E+000, 1.2133492E-014,-5.8335687E-001
 4.2000000E+001, 0.0000000E+000, 0.0000000E+000, 0.0000000E+000, 1.5854924E-002,-5.6833323E-014, 0.0000000E+000, 0.0000000E+000, 0.0000000E+000, 0.0000000E+000, 1.5854924E-002, 0.0000000E+000, 1.4268937E-014,-5.8335687E-001
 4.3000000E+001, 0.0000000E+000, 0.0000000E+000, 0.0000000E+000, 1.6029942E-002,-6.6892538E-014, 0.0000000E+000, 0.0000000E+000, 0.0000000E+000, 0.0000000E+000, 1.6029942E-002, 0.0000000E+000, 1.6718274E-014,-5.8335687E-001
 4.4000000E+001, 0.0000000E+000, 0.0000000E+000, 0.0000000E+000, 1.6202022E-002,-7.8453098E-014, 0.0000000E+000, 0.0000000E+000, 0.0000000E+000, 0.0000000E+000, 1.6202022E-002, 0.0000000E+000, 1.9519365E-014,-5.8335687E-001
 4.5000000E+001, 0.0000000E+000, 0.0000000E+000, 0.0000000E+000, 1.6371245E-002,-9.1699349E-014, 0.0000000E+000, 0.0000000E+000, 0.0000000E+000, 0.0000000E+000, 1.6371245E-002, 0.0000000E+000, 2.2712909E-014,-5.8335687E-001
 4.6000000E+001, 0.0000000E+000, 0.0000000E+000, 0.0000000E+000, 1.6537707E-002,-1.0683030E-013, 0.0000000E+000, 0.0000000E+000, 0.0000000E+000, 0.0000000E+000, 1.6537707E-002, 0.0000000E+000, 2.6342928E-014,-5.8335687E-001
 4.7000000E+001, 0.0000000E+000, 0.0000000E+000, 0.0000000E+000, 1.6701539E-002,-1.2430009E-013, 0.0000000E+000, 0.0000000E+000, 0.0000000E+000, 0.0000000E+000, 1.6701539E-002, 0.0000000E+000, 3.0457928E-014,-5.8335687E-001
 4.8000000E+001, 0.0000000E+000, 0.0000000E+000, 0.0000000E+000, 1.6862838E-002,-1.4392938E-013, 0.0000000E+000, 0.0000000E+000, 0.0000000E+000, 0.0000000E+000, 1.6862838E-002, 0.0000000E+000, 3.5111767E-014,-5.8335687E-001
 4.9000000E+001, 0.0000000E+000, 0.0000000E+000, 0.0000000E+000, 1.7021658E-002,-1.6617777E-013, 0.0000000E+000, 0.0000000E+000, 0.0000000E+000, 0.0000000E+000, 1.7021658E-002, 0.0000000E+000, 4.0360790E-014,-5.8335687E-001
 5.0000000E+001, 0.0000000E+000, 0.0000000E+000, 0.0000000E+000, 1.7178102E-002,-1.9132919E-013, 0.0000000E+000, 0.0000000E+000, 0.0000000E+000, 0.0000000E+000, 1.7178102E-002, 0.0000000E+000, 4.6265717E-014,-5.8335687E-001
 5.1000000E+001, 0.0000000E+000, 0.0000000E+000, 0.0000000E+000, 1.7332256E-002,-2.1970444E-013, 0.0000000E+000, 0.0000000E+000, 0.0000000E+000, 0.0000000E+000, 1.7332256E-002, 0.0000000E+000, 5.2895322E-014,-5.8335687E-001
 5.2000000E+001, 0.0000000E+000, 0.0000000E+000, 0.0000000E+000, 1.7484176E-002,-2.5163833E-013, 0.0000000E+000, 0.0000000E+000, 0.0000000E+000, 0.0000000E+000, 1.7484176E-002, 0.0000000E+000, 6.0320364E-014,-5.8335687E-001
 5.3000000E+001, 0.0000000E+000, 0.0000000E+000, 0.0000000E+000, 1.7633945E-002,-2.8749967E-013, 0.0000000E+000, 0.0000000E+000, 0.0000000E+000, 0.0000000E+000, 1.7633945E-002, 0.0000000E+000, 6.8618220E-014,-5.8335687E-001
 5.4000000E+001, 0.0000000E+000, 0.0000000E+000, 0.0000000E+000, 1.7781625E-002,-3.2702469E-013, 0.0000000E+000, 0.0000000E+000, 0.0000000E+000, 0.0000000E+000, 1.7781625E-002, 0.0000000E+000, 7.7872952E-014,-5.8335687E-001
 5.5000000E+001, 0.0000000E+000, 0.0000000E+000, 0.0000000E+000, 1.7927286E-002,-3.7187364E-013, 0.0000000E+000, 0.0000000E+000, 0.0000000E+000, 0.0000000E+000, 1.7927286E-002, 0.0000000E+000, 8.8173787E-014,-5.8335687E-001
 5.6000000E+001, 0.0000000E+000, 0.0000000E+000, 0.0000000E+000, 1.8070983E-002,-4.2193864E-013, 0.0000000E+000, 0.0000000E+000, 0.0000000E+000, 0.0000000E+000, 1.8070983E-002, 0.0000000E+000, 9.9617649E-014,-5.8335687E-001
 5.7000000E+001, 0.0000000E+000, 0.0000000E+000, 0.0000000E+000, 1.8212793E-002,-4.7771246E-013, 0.0000000E+000, 0.0000000E+000, 0.0000000E+000, 0.0000000E+000, 1.8212793E-002, 0.0000000E+000, 1.1230587E-013,-5.8335687E-001
 5.8000000E+001, 0.0000000E+000, 0.0000000E+000, 0.0000000E+000, 1.8352781E-002,-5.3975819E-013, 0.0000000E+000, 0.0000000E+000, 0.0000000E+000, 0.0000000E+000, 1.8352781E-002, 0.0000000E+000, 1.2635382E-013,-5.8335687E-001
 5.9000000E+001, 0.0000000E+000, 0.0000000E+000, 0.0000000E+000, 1.8490961E-002,-6.0863801E-013, 0.0000000E+000, 0.0000000E+000, 0.0000000E+000, 0.0000000E+000, 1.8490961E-002, 0.0000000E+000, 1.4187523E-013,-5.8335687E-001
 6.0000000E+001, 0.0000000E+000, 0.0000000E+000, 0.0000000E+000, 1.8627407E-002,-6.8497163E-013, 0.0000000E+000, 0.0000000E+000, 0.0000000E+000, 0.0000000E+000, 1.8627407E-002, 0.0000000E+000, 1.5899459E-013,-5.8335687E-001
 6.1000000E+001, 0.0000000E+000, 0.0000000E+000, 0.0000000E+000, 1.8762183E-002,-7.6945231E-013, 0.0000000E+000, 0.0000000E+000, 0.0000000E+000, 0.0000000E+000, 1.8762183E-002, 0.0000000E+000, 1.7785146E-013,-5.8335687E-001
 6.2000000E+001, 0.0000000E+000, 0.0000000E+000, 0.0000000E+000, 1.8895324E-002,-8.6279463E-013, 0.0000000E+000, 0.0000000E+000, 0.0000000E+000, 0.0000000E+000, 1.8895324E-002, 0.0000000E+000, 1.9858786E-013,-5.8335687E-001
 6.3000000E+001, 0.0000000E+000, 0.0000000E+000, 0.0000000E+000, 1.9026887E-002,-9.6364956E-013, 0.0000000E+000, 0.0000000E+000, 0.0000000E+000, 0.0000000E+000, 1.9026887E-002, 0.0000000E+000, 2.2135701E-013,-5.8335687E-001
 6.4000000E+001, 0.0000000E+000, 0.0000000E+000, 0.0000000E+000, 1.9156903E-002,-1.0768321E-012, 0.0000000E+000, 0.0000000E+000, 0.0000000E+000, 0.0000000E+000, 1.9156903E-002, 0.0000000E+000, 2.4632409E-013,-5.8335687E-001
 6.5000000E+001, 0.0000000E+000, 0.0000000E+000, 0.0000000E+000, 1.9285431E-002,-1.2013087E-012, 0.0000000E+000, 0.0000000E+000, 0.0000000E+000, 0.0000000E+000, 1.9285431E-002, 0.0000000E+000, 2.7365313E-013,-5.8335687E-001
 6.6000000E+001, 0.0000000E+000, 0.0000000E+000, 0.0000000E+000, 1.9412524E-002,-1.3380985E-012, 0.0000000E+000, 0.0000000E+000, 0.0000000E+000, 0.0000000E+000, 1.9412524E-002, 0.0000000E+000, 3.0354510E-013,-5.8335687E-001
 6.7000000E+001, 0.0000000E+000, 0.0000000E+000, 0.0000000E+000, 1.9538200E-002,-1.4881738E-012, 0.0000000E+000, 0.0000000E+000, 0.0000000E+000, 0.0000000E+000, 1.9538200E-002, 0.0000000E+000, 3.3618633E-013,-5.8335687E-001
 6.8000000E+001, 0.0000000E+000, 0.0000000E+000, 0.0000000E+000, 1.9662502E-002,-1.6526223E-012, 0.0000000E+000, 0.0000000E+000, 0.0000000E+000, 0.0000000E+000, 1.9662502E-002, 0.0000000E+000, 3.7178621E-013,-5.8335687E-001
 6.9000000E+001, 0.0000000E+000, 0.0000000E+000, 0.0000000E+000, 1.9785469E-002,-1.8283858E-012, 0.0000000E+000, 0.0000000E+000, 0.0000000E+000, 0.0000000E+000, 1.9785469E-002, 0.0000000E+000, 4.1056513E-013,-5.8335687E-001
 7.0000000E+001, 0.0000000E+000, 0.0000000E+000, 0.0000000E+000, 1.9907136E-002,-2.0246350E-012, 0.0000000E+000, 0.0000000E+000, 0.0000000E+000, 0.0000000E+000, 1.9907136E-002, 0.0000000E+000, 4.5275765E-013,-5.8335687E-001
 7.1000000E+001, 0.0000000E+000, 0.0000000E+000, 0.0000000E+000, 2.0027543E-002,-2.2388871E-012, 0.0000000E+000, 0.0000000E+000, 0.0000000E+000, 0.0000000E+000, 2.0027543E-002, 0.0000000E+000, 4.9860528E-013,-5.8335687E-001
 7.2000000E+001, 0.0000000E+000, 0.0000000E+000, 0.0000000E+000, 2.0146728E-002,-2.4725969E-012, 0.0000000E+000, 0.0000000E+000, 0.0000000E+000, 0.0000000E+000, 2.0146728E-002, 0.0000000E+000, 5.4838399E-013,-5.8335687E-001
 7.3000000E+001, 0.0000000E+000, 0.0000000E+000, 0.0000000E+000, 2.0264714E-002,-2.7207852E-012, 0.0000000E+000, 0.0000000E+000, 0.0000000E+000, 0.0000000E+000, 2.0264714E-002, 0.0000000E+000, 6.0236283E-013,-5.8335687E-001
 7.4000000E+001, 0.0000000E+000, 0.0000000E+000, 0.0000000E+000, 2.0381548E-002,-2.9971867E-012, 0.0000000E+000, 0.0000000E+000, 0.0000000E+000, 0.0000000E+000, 2.0381548E-002, 0.0000000E+000, 6.6083618E-013,-5.8335687E-001
 7.5000000E+001, 0.0000000E+000, 0.0000000E+000, 0.0000000E+000, 2.0497266E-002,-3.2977473E-012, 0.0000000E+000, 0.0000000E+000, 0.0000000E+000, 0.0000000E+000, 2.0497266E-002, 0.0000000E+000, 7.2412526E-013,-5.8335687E-001
 7.6000000E+001, 0.0000000E+000, 0.0000000E+000, 0.0000000E+000, 2.0611873E-002,-3.6242461E-012, 0.0000000E+000, 0.0000000E+000, 0.0000000E+000, 0.0000000E+000, 2.0611873E-002, 0.0000000E+000, 7.9255750E-013,-5.8335687E-001
 7.7000000E+001, 0.0000000E+000, 0.0000000E+000, 0.0000000E+000, 2.0725419E-002,-3.9688850E-012, 0.0000000E+000, 0.0000000E+000, 0.0000000E+000, 0.0000000E+000, 2.0725419E-002, 0.0000000E+000, 8.6645826E-013,-5.8335687E-001
 7.8000000E+001, 0.0000000E+000, 0.0000000E+000, 0.0000000E+000, 2.0837929E-002,-4.3520523E-012, 0.0000000E+000, 0.0000000E+000, 0.0000000E+000, 0.0000000E+000, 2.0837929E-002, 0.0000000E+000, 9.4623234E-013,-5.8335687E-001
 7.9000000E+001, 0.0000000E+000, 0.0000000E+000, 0.0000000E+000, 2.0949404E-002,-4.7670238E-012, 0.0000000E+000, 0.0000000E+000, 0.0000000E+000, 0.0000000E+000, 2.0949404E-002, 0.0000000E+000, 1.0322269E-012,-5.8335687E-001
 8.0000000E+001, 0.0000000E+000, 0.0000000E+000, 0.0000000E+000, 2.1059899E-002,-5.2161482E-012, 0.0000000E+000, 0.0000000E+000, 0.0000000E+000, 0.0000000E+000, 2.1059899E-002, 0.0000000E+000, 1.1248674E-012,-5.8335687E-001
 8.1000000E+001, 0.0000000E+000, 0.0000000E+000, 0.0000000E+000, 2.1169440E-002,-5.6877951E-012, 0.0000000E+000, 0.0000000E+000, 0.0000000E+000, 0.0000000E+000, 2.1169440E-002, 0.0000000E+000, 1.2245935E-012,-5.8335687E-001
 8.2000000E+001, 0.0000000E+000, 0.0000000E+000, 0.0000000E+000, 2.1278023E-002,-6.2112234E-012, 0.0000000E+000, 0.0000000E+000, 0.0000000E+000, 0.0000000E+000, 2.1278023E-002, 0.0000000E+000, 1.3318506E-012,-5.8335687E-001
 8.3000000E+001, 0.0000000E+000, 0.0000000E+000, 0.0000000E+000, 2.1385683E-002,-6.7761928E-012, 0.0000000E+000, 0.0000000E+000, 0.0000000E+000, 0.0000000E+000, 2.1385683E-002, 0.0000000E+000, 1.4470830E-012,-5.8335687E-001
 8.4000000E+001, 0.0000000E+000, 0.0000000E+000, 0.0000000E+000, 2.1492465E-002,-7.3672508E-012, 0.0000000E+000, 0.0000000E+000, 0.0000000E+000, 0.0000000E+000, 2.1492465E-002, 0.0000000E+000, 1.5708348E-012,-5.8335687E-001
 8.5000000E+001, 0.0000000E+000, 0.0000000E+000, 0.0000000E+000, 2.1598370E-002,-8.0226051E-012, 0.0000000E+000, 0.0000000E+000, 0.0000000E+000, 0.0000000E+000, 2.1598370E-002, 0.0000000E+000, 1.7036311E-012,-5.8335687E-001
 8.6000000E+001, 0.0000000E+000, 0.0000000E+000, 0.0000000E+000, 2.1703432E-002,-8.7284621E-012, 0.0000000E+000, 0.0000000E+000, 0.0000000E+000, 0.0000000E+000, 2.1703432E-002, 0.0000000E+000, 1.8459989E-012,-5.8335687E-001
 8.7000000E+001, 0.0000000E+000, 0.0000000E+000, 0.0000000E+000, 2.1807669E-002,-9.4643930E-012, 0.0000000E+000, 0.0000000E+000, 0.0000000E+000, 0.0000000E+000, 2.1807669E-002, 0.0000000E+000, 1.9985877E-012,-5.8335687E-001
 8.8000000E+001, 0.0000000E+000, 0.0000000E+000, 0.0000000E+000, 2.1911098E-002,-1.0279576E-011, 0.0000000E+000, 0.0000000E+000, 0.0000000E+000, 0.0000000E+000, 2.1911098E-002, 0.0000000E+000, 2.1619421E-012,-5.8335687E-001
 8.9000000E+001, 0.0000000E+000, 0.0000000E+000, 0.0000000E+000, 2.2013757E-002,-1.1155972E-011, 0.0000000E+000, 0.0000000E+000, 0.0000000E+000, 0.0000000E+000, 2.2013757E-002, 0.0000000E+000, 2.3367546E-012,-5.8335687E-001
 9.0000000E+001, 0.0000000E+000, 0.0000000E+000, 0.0000000E+000, 2.2115627E-002,-1.2066436E-011, 0.0000000E+000, 0.0000000E+000, 0.0000000E+000, 0.0000000E+000, 2.2115627E-002, 0.0000000E+000, 2.5237096E-012,-5.8335687E-001
 9.1000000E+001, 0.0000000E+000, 0.0000000E+000, 0.0000000E+000, 2.2216724E-002,-1.3074183E-011, 0.0000000E+000, 0.0000000E+000, 0.0000000E+000, 0.0000000E+000, 2.2216724E-002, 0.0000000E+000, 2.7234295E-012,-5.8335687E-001
 9.2000000E+001, 0.0000000E+000, 0.0000000E+000, 0.0000000E+000, 2.2317124E-002,-1.4155492E-011, 0.0000000E+000, 0.0000000E+000, 0.0000000E+000, 0.0000000E+000, 2.2317124E-002, 0.0000000E+000, 2.9367403E-012,-5.8335687E-001
 9.3000000E+001, 0.0000000E+000, 0.0000000E+000, 0.0000000E+000, 2.2416810E-002,-1.5275536E-011, 0.0000000E+000, 0.0000000E+000, 0.0000000E+000, 0.0000000E+000, 2.2416810E-002, 0.0000000E+000, 3.1645229E-012,-5.8335687E-001
 9.4000000E+001, 0.0000000E+000, 0.0000000E+000, 0.0000000E+000, 2.2515760E-002,-1.6514604E-011, 0.0000000E+000, 0.0000000E+000, 0.0000000E+000, 0.0000000E+000, 2.2515760E-002, 0.0000000E+000, 3.4073983E-012,-5.8335687E-001
 9.5000000E+001, 0.0000000E+000, 0.0000000E+000, 0.0000000E+000, 2.2614060E-002,-1.7841543E-011, 0.0000000E+000, 0.0000000E+000, 0.0000000E+000, 0.0000000E+000, 2.2614060E-002, 0.0000000E+000, 3.6662968E-012,-5.8335687E-001
 9.6000000E+001, 0.0000000E+000, 0.0000000E+000, 0.0000000E+000, 2.2711702E-002,-1.9211957E-011, 0.0000000E+000, 0.0000000E+000, 0.0000000E+000, 0.0000000E+000, 2.2711702E-002, 0.0000000E+000, 3.9423342E-012,-5.8335687E-001
 9.7000000E+001, 0.0000000E+000, 0.0000000E+000, 0.0000000E+000, 2.2808668E-002,-2.0727545E-011, 0.0000000E+000, 0.0000000E+000, 0.0000000E+000, 0.0000000E+000, 2.2808668E-002, 0.0000000E+000, 4.2361700E-012,-5.8335687E-001
 9.8000000E+001, 0.0000000E+000, 0.0000000E+000, 0.0000000E+000, 2.2905012E-002,-2.2288868E-011, 0.0000000E+000, 0.0000000E+000, 0.0000000E+000, 0.0000000E+000, 2.2905012E-002, 0.0000000E+000, 4.5489343E-012,-5.8335687E-001
 9.9000000E+001, 0.0000000E+000, 0.0000000E+000, 0.0000000E+000, 2.3000743E-002,-2.4016303E-011, 0.0000000E+000, 0.0000000E+000, 0.0000000E+000, 0.0000000E+000, 2.3000743E-002, 0.0000000E+000, 4.8817320E-012,-5.8335687E-001
 1.0000000E+002, 0.0000000E+000, 0.0000000E+000, 0.0000000E+000, 2.3095856E-002,-2.5861478E-011, 0.0000000E+000, 0.0000000E+000, 0.0000000E+000, 0.0000000E+000, 2.3095856E-002, 0.0000000E+000, 5.2355826E-012,-5.8335687E-001
 1.0100000E+002, 0.0000000E+000, 0.0000000E+000, 0.0000000E+000, 2.3190369E-002,-2.7756450E-011, 0.0000000E+000, 0.0000000E+000, 0.0000000E+000, 0.0000000E+000, 2.3190369E-002, 0.0000000E+000, 5.6115862E-012,-5.8335687E-001
 1.0200000E+002, 0.0000000E+000, 0.0000000E+000, 0.0000000E+000, 2.3284302E-002,-2.9852519E-011, 0.0000000E+000, 0.0000000E+000, 0.0000000E+000, 0.0000000E+000, 2.3284302E-002, 0.0000000E+000, 6.0110267E-012,-5.8335687E-001
 1.0300000E+002, 0.0000000E+000, 0.0000000E+000, 0.0000000E+000, 2.3377664E-002,-3.2001638E-011, 0.0000000E+000, 0.0000000E+000, 0.0000000E+000, 0.0000000E+000, 2.3377664E-002, 0.0000000E+000, 6.4351498E-012,-5.8335687E-001
 1.0400000E+002, 0.0000000E+000, 0.0000000E+000, 0.0000000E+000, 2.3470477E-002,-3.4378135E-011, 0.0000000E+000, 0.0000000E+000, 0.0000000E+000, 0.0000000E+000, 2.3470477E-002, 0.0000000E+000, 6.8851974E-012,-5.8335687E-001
 1.0500000E+002, 0.0000000E+000, 0.0000000E+000, 0.0000000E+000, 2.3562750E-002,-3.6911284E-011, 0.0000000E+000, 0.0000000E+000, 0.0000000E+000, 0.0000000E+000, 2.3562749E-002, 0.0000000E+000, 7.3627226E-012,-5.8335687E-001
 1.0600000E+002, 0.0000000E+000, 0.0000000E+000, 0.0000000E+000, 2.3654478E-002,-3.9500995E-011, 0.0000000E+000, 0.0000000E+000, 0.0000000E+000, 0.0000000E+000, 2.3654478E-002, 0.0000000E+000, 7.8689803E-012,-5.8335687E-001
 1.0700000E+002, 0.0000000E+000, 0.0000000E+000, 0.0000000E+000, 2.3745688E-002,-4.2364987E-011, 0.0000000E+000, 0.0000000E+000, 0.0000000E+000, 0.0000000E+000, 2.3745688E-002, 0.0000000E+000, 8.4055103E-012,-5.8335687E-001
 1.0800000E+002, 0.0000000E+000, 0.0000000E+000, 0.0000000E+000, 2.3836390E-002,-4.5288600E-011, 0.0000000E+000, 0.0000000E+000, 0.0000000E+000, 0.0000000E+000, 2.3836390E-002, 0.0000000E+000, 8.9739746E-012,-5.8335687E-001
 1.0900000E+002, 0.0000000E+000, 0.0000000E+000, 0.0000000E+000, 2.3926570E-002,-4.8521871E-011, 0.0000000E+000, 0.0000000E+000, 0.0000000E+000, 0.0000000E+000, 2.3926570E-002, 0.0000000E+000, 9.5759420E-012,-5.8335687E-001
 1.1000000E+002, 0.0000000E+000, 0.0000000E+000, 0.0000000E+000, 2.4016279E-002,-5.1959440E-011, 0.0000000E+000, 0.0000000E+000, 0.0000000E+000, 0.0000000E+000, 2.4016279E-002, 0.0000000E+000, 1.0213000E-011,-5.8335687E-001
 1.1100000E+002, 0.0000000E+000, 0.0000000E+000, 0.0000000E+000, 2.4105523E-002,-5.5460634E-011, 0.0000000E+000, 0.0000000E+000, 0.0000000E+000, 0.0000000E+000, 2.4105523E-002, 0.0000000E+000, 1.0887390E-011,-5.8335687E-001
 1.1200000E+002, 0.0000000E+000, 0.0000000E+000, 0.0000000E+000, 2.4194276E-002,-5.9332849E-011, 0.0000000E+000, 0.0000000E+000, 0.0000000E+000, 0.0000000E+000, 2.4194276E-002, 0.0000000E+000, 1.1600593E-011,-5.8335687E-001
 1.1300000E+002, 0.0000000E+000, 0.0000000E+000, 0.0000000E+000, 2.4282574E-002,-6.3268103E-011, 0.0000000E+000, 0.0000000E+000, 0.0000000E+000, 0.0000000E+000, 2.4282574E-002, 0.0000000E+000, 1.2354550E-011,-5.8335687E-001
 1.1400000E+002, 0.0000000E+000, 0.0000000E+000, 0.0000000E+000, 2.4370419E-002,-6.7621946E-011, 0.0000000E+000, 0.0000000E+000, 0.0000000E+000, 0.0000000E+000, 2.4370419E-002, 0.0000000E+000, 1.3151538E-011,-5.8335687E-001
 1.1500000E+002, 0.0000000E+000, 0.0000000E+000, 0.0000000E+000, 2.4457816E-002,-7.2040048E-011, 0.0000000E+000, 0.0000000E+000, 0.0000000E+000, 0.0000000E+000, 2.4457816E-002, 0.0000000E+000, 1.3993516E-011,-5.8335687E-001
 1.1600000E+002, 0.0000000E+000, 0.0000000E+000, 0.0000000E+000, 2.4544784E-002,-7.6927675E-011, 0.0000000E+000, 0.0000000E+000, 0.0000000E+000, 0.0000000E+000, 2.4544784E-002, 0.0000000E+000, 1.4882731E-011,-5.8335687E-001
 1.1700000E+002, 0.0000000E+000, 0.0000000E+000, 0.0000000E+000, 2.4631341E-002,-8.2112162E-011, 0.0000000E+000, 0.0000000E+000, 0.0000000E+000, 0.0000000E+000, 2.4631341E-002, 0.0000000E+000, 1.5821650E-011,-5.8335687E-001
 1.1800000E+002, 0.0000000E+000, 0.0000000E+000, 0.0000000E+000, 2.4717469E-002,-8.7361142E-011, 0.0000000E+000, 0.0000000E+000, 0.0000000E+000, 0.0000000E+000, 2.4717469E-002, 0.0000000E+000, 1.6812657E-011,-5.8335687E-001
 1.1900000E+002, 0.0000000E+000, 0.0000000E+000, 0.0000000E+000, 2.4803178E-002,-9.3169055E-011, 0.0000000E+000, 0.0000000E+000, 0.0000000E+000, 0.0000000E+000, 2.4803178E-002, 0.0000000E+000, 1.7858066E-011,-5.8335687E-001
 1.2000000E+002, 0.0000000E+000, 0.0000000E+000, 0.0000000E+000, 2.4888488E-002,-9.9039935E-011, 0.0000000E+000, 0.0000000E+000, 0.0000000E+000, 0.0000000E+000, 2.4888488E-002, 0.0000000E+000, 1.8960641E-011,-5.8335687E-001
 1.2100000E+002, 0.0000000E+000, 0.0000000E+000, 0.0000000E+000, 2.4973390E-002,-1.0553787E-010, 0.0000000E+000, 0.0000000E+000, 0.0000000E+000, 0.0000000E+000, 2.4973390E-002, 0.0000000E+000, 2.0123150E-011,-5.8335687E-001
 1.2200000E+002, 0.0000000E+000, 0.0000000E+000, 0.0000000E+000, 2.5057907E-002,-1.1209533E-010, 0.0000000E+000, 0.0000000E+000, 0.0000000E+000, 0.0000000E+000, 2.5057907E-002, 0.0000000E+000, 2.1348190E-011,-5.8335687E-001
 1.2300000E+002, 0.0000000E+000, 0.0000000E+000, 0.0000000E+000, 2.5142053E-002,-1.1935584E-010, 0.0000000E+000, 0.0000000E+000, 0.0000000E+000, 0.0000000E+000, 2.5142053E-002, 0.0000000E+000, 2.2639254E-011,-5.8335687E-001
 1.2400000E+002, 0.0000000E+000, 0.0000000E+000, 0.0000000E+000, 2.5225804E-002,-1.2667337E-010, 0.0000000E+000, 0.0000000E+000, 0.0000000E+000, 0.0000000E+000, 2.5225804E-002, 0.0000000E+000, 2.3999140E-011,-5.8335687E-001
 1.2500000E+002, 0.0000000E+000, 0.0000000E+000, 0.0000000E+000, 2.5309195E-002,-1.3477281E-010, 0.0000000E+000, 0.0000000E+000, 0.0000000E+000, 0.0000000E+000, 2.5309195E-002, 0.0000000E+000, 2.5430645E-011,-5.8335687E-001
 1.2600000E+002, 0.0000000E+000, 0.0000000E+000, 0.0000000E+000, 2.5392249E-002,-1.4292755E-010, 0.0000000E+000, 0.0000000E+000, 0.0000000E+000, 0.0000000E+000, 2.5392249E-002, 0.0000000E+000, 2.6938179E-011,-5.8335687E-001
 1.2700000E+002, 0.0000000E+000, 0.0000000E+000, 0.0000000E+000, 2.5474920E-002,-1.5195806E-010, 0.0000000E+000, 0.0000000E+000, 0.0000000E+000, 0.0000000E+000, 2.5474920E-002, 0.0000000E+000, 2.8524688E-011,-5.8335687E-001
 1.2800000E+002, 0.0000000E+000, 0.0000000E+000, 0.0000000E+000, 2.5557248E-002,-1.6103070E-010, 0.0000000E+000, 0.0000000E+000, 0.0000000E+000, 0.0000000E+000, 2.5557247E-002, 0.0000000E+000, 3.0193145E-011,-5.8335687E-001
 1.2900000E+002, 0.0000000E+000, 0.0000000E+000, 0.0000000E+000, 2.5639226E-002,-1.7108343E-010, 0.0000000E+000, 0.0000000E+000, 0.0000000E+000, 0.0000000E+000, 2.5639226E-002, 0.0000000E+000, 3.1948633E-011,-5.8335687E-001
 1.3000000E+002, 0.0000000E+000, 0.0000000E+000, 0.0000000E+000, 2.5720855E-002,-1.8169752E-010, 0.0000000E+000, 0.0000000E+000, 0.0000000E+000, 0.0000000E+000, 2.5720854E-002, 0.0000000E+000, 3.3793629E-011,-5.8335687E-001
 1.3100000E+002, 0.0000000E+000, 0.0000000E+000, 0.0000000E+000, 2.5802177E-002,-1.9234403E-010, 0.0000000E+000, 0.0000000E+000, 0.0000000E+000, 0.0000000E+000, 2.5802177E-002, 0.0000000E+000, 3.5733448E-011,-5.8335687E-001
 1.3200000E+002, 0.0000000E+000, 0.0000000E+000, 0.0000000E+000, 2.5883150E-002,-2.0414370E-010, 0.0000000E+000, 0.0000000E+000, 0.0000000E+000, 0.0000000E+000, 2.5883150E-002, 0.0000000E+000, 3.7772314E-011,-5.8335687E-001