s,kW,kW,kW,kW,kW,kW,kW,kW,kW,kW,kg/s,kg/s,Pa
Time,HRR,Q_RADI,Q_CONV,Q_COND,Q_DIFF,Q_PRES,Q_PART,Q_GEOM,Q_ENTH,Q_TOTAL,MLR_FUEL,MLR_TOTAL,ZONE_1
 0.0000000E+000, 0.0000000E+000, 0.0000000E+000, 0.0000000E+000, 0.0000000E+000, 0.0000000E+000, 0.0000000E+000, 0.0000000E+000, 0.0000000E+000, 0.0000000E+000, 0.0000000E+000, 0.0000000E+000, 0.0000000E+000,-5.8335687E-001
 1.0000000E+000, 0.0000000E+000, 0.0000000E+000, 0.0000000E+000,-6.2753675E-010,-1.6532229E-011, 0.0000000E+000, 0.0000000E+000, 0.0000000E+000, 0.0000000E+000,-6.4406898E-010, 0.0000000E+000, 5.8275409E-012,-5.8335687E-001
 2.0000000E+000, 0.0000000E+000, 0.0000000E+000, 0.0000000E+000, 2.9261477E-004,-1.6689939E-011, 0.0000000E+000, 0.0000000E+000, 0.0000000E+000, 0.0000000E+000, 2.9261475E-004, 0.0000000E+000, 5.8275403E-012,-5.8335687E-001
 3.0000000E+000, 0.0000000E+000, 0.0000000E+000, 0.0000000E+000, 7.5573558E-004,-1.7767688E-011, 0.0000000E+000, 0.0000000E+000, 0.0000000E+000, 0.0000000E+000, 7.5573557E-004, 0.0000000E+000, 6.1678137E-012,-5.8335687E-001
 4.0000000E+000, 0.0000000E+000, 0.0000000E+000, 0.0000000E+000, 1.0660946E-003,-1.9101884E-011, 0.0000000E+000, 0.0000000E+000, 0.0000000E+000, 0.0000000E+000, 1.0660946E-003, 0.0000000E+000, 6.6008151E-012,-5.8335687E-001
 5.0000000E+000, 0.0000000E+000, 0.0000000E+000, 0.0000000E+000, 1.3243057E-003,-2.0687162E-011, 0.0000000E+000, 0.0000000E+000, 0.0000000E+000, 0.0000000E+000, 1.3243057E-003, 0.0000000E+000, 7.1177255E-012,-5.8335687E-001
 6.0000000E+000, 0.0000000E+000, 0.0000000E+000, 0.0000000E+000, 1.5476513E-003,-2.2492048E-011, 0.0000000E+000, 0.0000000E+000, 0.0000000E+000, 0.0000000E+000, 1.5476513E-003, 0.0000000E+000, 7.7143497E-012,-5.8335687E-001
 7.0000000E+000, 0.0000000E+000, 0.0000000E+000, 0.0000000E+000, 1.7476659E-003,-2.4550545E-011, 0.0000000E+000, 0.0000000E+000, 0.0000000E+000, 0.0000000E+000, 1.7476659E-003, 0.0000000E+000, 8.3920122E-012,-5.8335687E-001
 8.0000000E+000, 0.0000000E+000, 0.0000000E+000, 0.0000000E+000, 1.9301234E-003,-2.6857736E-011, 0.0000000E+000, 0.0000000E+000, 0.0000000E+000, 0.0000000E+000, 1.9301234E-003, 0.0000000E+000, 9.1525829E-012,-5.8335687E-001
 9.0000000E+000, 0.0000000E+000, 0.0000000E+000, 0.0000000E+000, 2.0988965E-003,-2.9424006E-011, 0.0000000E+000, 0.0000000E+000, 0.0000000E+000, 0.0000000E+000, 2.0988964E-003, 0.0000000E+000, 9.9988797E-012,-5.8335687E-001
 1.0000000E+001, 0.0000000E+000, 0.0000000E+000, 0.0000000E+000, 2.2565793E-003,-3.2260774E-011, 0.0000000E+000, 0.0000000E+000, 0.0000000E+000, 0.0000000E+000, 2.2565792E-003, 0.0000000E+000, 1.0934144E-011,-5.8335687E-001
 1.1000000E+001, 0.0000000E+000, 0.0000000E+000, 0.0000000E+000, 2.4050554E-003,-3.5380503E-011, 0.0000000E+000, 0.0000000E+000, 0.0000000E+000, 0.0000000E+000, 2.4050554E-003, 0.0000000E+000, 1.1962020E-011,-5.8335687E-001
 1.2000000E+001, 0.0000000E+000, 0.0000000E+000, 0.0000000E+000, 2.5457033E-003,-3.8796376E-011, 0.0000000E+000, 0.0000000E+000, 0.0000000E+000, 0.0000000E+000, 2.5457032E-003, 0.0000000E+000, 1.3086425E-011,-5.8335687E-001
 1.3000000E+001, 0.0000000E+000, 0.0000000E+000, 0.0000000E+000, 2.6796014E-003,-4.2521987E-011, 0.0000000E+000, 0.0000000E+000, 0.0000000E+000, 0.0000000E+000, 2.6796014E-003, 0.0000000E+000, 1.4311401E-011,-5.8335687E-001
 1.4000000E+001, 0.0000000E+000, 0.0000000E+000, 0.0000000E+000, 2.8076135E-003,-4.6572131E-011, 0.0000000E+000, 0.0000000E+000, 0.0000000E+000, 0.0000000E+000, 2.8076134E-003, 0.0000000E+000, 1.5641403E-011,-5.8335687E-001
 1.5000000E+001, 0.0000000E+000, 0.0000000E+000, 0.0000000E+000, 2.9304152E-003,-5.0983146E-011, 0.0000000E+000, 0.0000000E+000, 0.0000000E+000, 0.0000000E+000, 2.9304152E-003, 0.0000000E+000, 1.7080938E-011,-5.8335687E-001
 1.6000000E+001, 0.0000000E+000, 0.0000000E+000, 0.0000000E+000, 3.0485663E-003,-5.5728664E-011, 0.0000000E+000, 0.0000000E+000, 0.0000000E+000, 0.0000000E+000, 3.0485663E-003, 0.0000000E+000, 1.8634703E-011,-5.8335687E-001
 1.7000000E+001, 0.0000000E+000, 0.0000000E+000, 0.0000000E+000, 3.1625369E-003,-6.0845517E-011, 0.0000000E+000, 0.0000000E+000, 0.0000000E+000, 0.0000000E+000, 3.1625368E-003, 0.0000000E+000, 2.0307598E-011,-5.8335687E-001
 1.8000000E+001, 0.0000000E+000, 0.0000000E+000, 0.0000000E+000, 3.2727282E-003,-6.6350599E-011, 0.0000000E+000, 0.0000000E+000, 0.0000000E+000, 0.0000000E+000, 3.2727281E-003, 0.0000000E+000, 2.2104706E-011,-5.8335687E-001
 1.9000000E+001, 0.0000000E+000, 0.0000000E+000, 0.0000000E+000, 3.3794739E-003,-7.2286664E-011, 0.0000000E+000, 0.0000000E+000, 0.0000000E+000, 0.0000000E+000, 3.3794739E-003, 0.0000000E+000, 2.4031282E-011,-5.8335687E-001
 2.0000000E+001, 0.0000000E+000, 0.0000000E+000, 0.0000000E+000, 3.4830526E-003,-7.8621185E-011, 0.0000000E+000, 0.0000000E+000, 0.0000000E+000, 0.0000000E+000, 3.4830525E-003, 0.0000000E+000, 2.6092618E-011,-5.8335687E-001
 2.1000000E+001, 0.0000000E+000, 0.0000000E+000, 0.0000000E+000, 3.5837204E-003,-8.5397494E-011, 0.0000000E+000, 0.0000000E+000, 0.0000000E+000, 0.0000000E+000, 3.5837203E-003, 0.0000000E+000, 2.8294268E-011,-5.8335687E-001
 2.2000000E+001, 0.0000000E+000, 0.0000000E+000, 0.0000000E+000, 3.6817008E-003,-9.2662680E-011, 0.0000000E+000, 0.0000000E+000, 0.0000000E+000, 0.0000000E+000, 3.6817007E-003, 0.0000000E+000, 3.0641919E-011,-5.8335687E-001
 2.3000000E+001, 0.0000000E+000, 0.0000000E+000, 0.0000000E+000, 3.7771838E-003,-1.0038031E-010, 0.0000000E+000, 0.0000000E+000, 0.0000000E+000, 0.0000000E+000, 3.7771837E-003, 0.0000000E+000, 3.3141448E-011,-5.8335687E-001
 2.4000000E+001, 0.0000000E+000, 0.0000000E+000, 0.0000000E+000, 3.8703395E-003,-1.0862873E-010, 0.0000000E+000, 0.0000000E+000, 0.0000000E+000, 0.0000000E+000, 3.8703394E-003, 0.0000000E+000, 3.5798843E-011,-5.8335687E-001
 2.5000000E+001, 0.0000000E+000, 0.0000000E+000, 0.0000000E+000, 3.9613173E-003,-1.1736753E-010, 0.0000000E+000, 0.0000000E+000, 0.0000000E+000, 0.0000000E+000, 3.9613172E-003, 0.0000000E+000, 3.8620201E-011,-5.8335687E-001
 2.6000000E+001, 0.0000000E+000, 0.0000000E+000, 0.0000000E+000, 4.0502561E-003,-1.2664841E-010, 0.0000000E+000, 0.0000000E+000, 0.0000000E+000, 0.0000000E+000, 4.0502560E-003, 0.0000000E+000, 4.1611810E-011,-5.8335687E-001
 2.7000000E+001, 0.0000000E+000, 0.0000000E+000, 0.0000000E+000, 4.1372804E-003,-1.3652526E-010, 0.0000000E+000, 0.0000000E+000, 0.0000000E+000, 0.0000000E+000, 4.1372802E-003, 0.0000000E+000, 4.4780273E-011,-5.8335687E-001
 2.8000000E+001, 0.0000000E+000, 0.0000000E+000, 0.0000000E+000, 4.2224975E-003,-1.4695613E-010, 0.0000000E+000, 0.0000000E+000, 0.0000000E+000, 0.0000000E+000, 4.2224973E-003, 0.0000000E+000, 4.8132123E-011,-5.8335687E-001
 2.9000000E+001, 0.0000000E+000, 0.0000000E+000, 0.0000000E+000, 4.3060082E-003,-1.5802863E-010, 0.0000000E+000, 0.0000000E+000, 0.0000000E+000, 0.0000000E+000, 4.3060081E-003, 0.0000000E+000, 5.1673972E-011,-5.8335687E-001
 3.0000000E+001, 0.0000000E+000, 0.0000000E+000, 0.0000000E+000, 4.3879133E-003,-1.6970048E-010, 0.0000000E+000, 0.0000000E+000, 0.0000000E+000, 0.0000000E+000, 4.3879131E-003, 0.0000000E+000, 5.5413059E-011,-5.8335687E-001
 3.1000000E+001, 0.0000000E+000, 0.0000000E+000, 0.0000000E+000, 4.4682880E-003,-1.8206312E-010, 0.0000000E+000, 0.0000000E+000, 0.0000000E+000, 0.0000000E+000, 4.4682878E-003, 0.0000000E+000, 5.9356509E-011,-5.8335687E-001
 3.2000000E+001, 0.0000000E+000, 0.0000000E+000, 0.0000000E+000, 4.5472077E-003,-1.9507167E-010, 0.0000000E+000, 0.0000000E+000, 0.0000000E+000, 0.0000000E+000, 4.5472075E-003, 0.0000000E+000, 6.3511160E-011,-5.8335687E-001
 3.3000000E+001, 0.0000000E+000, 0.0000000E+000, 0.0000000E+000, 4.6247477E-003,-2.0882151E-010, 0.0000000E+000, 0.0000000E+000, 0.0000000E+000, 0.0000000E+000, 4.6247475E-003, 0.0000000E+000, 6.7885046E-011,-5.8335687E-001
 3.4000000E+001, 0.0000000E+000, 0.0000000E+000, 0.0000000E+000, 4.7009736E-003,-2.2326915E-010, 0.0000000E+000, 0.0000000E+000, 0.0000000E+000, 0.0000000E+000, 4.7009734E-003, 0.0000000E+000, 7.2485449E-011,-5.8335687E-001
 3.5000000E+001, 0.0000000E+000, 0.0000000E+000, 0.0000000E+000, 4.7759440E-003,-2.3850940E-010, 0.0000000E+000, 0.0000000E+000, 0.0000000E+000, 0.0000000E+000, 4.7759438E-003, 0.0000000E+000, 7.7320395E-011,-5.8335687E-001
 3.6000000E+001, 0.0000000E+000, 0.0000000E+000, 0.0000000E+000, 4.8497102E-003,-2.5450183E-010, 0.0000000E+000, 0.0000000E+000, 0.0000000E+000, 0.0000000E+000, 4.8497099E-003, 0.0000000E+000, 8.2397556E-011,-5.8335687E-001
 3.7000000E+001, 0.0000000E+000, 0.0000000E+000, 0.0000000E+000, 4.9223221E-003,-2.7133877E-010, 0.0000000E+000, 0.0000000E+000, 0.0000000E+000, 0.0000000E+000, 4.9223218E-003, 0.0000000E+000, 8.7724963E-011,-5.8335687E-001
 3.8000000E+001, 0.0000000E+000, 0.0000000E+000, 0.0000000E+000, 4.9938337E-003,-2.8898613E-010, 0.0000000E+000, 0.0000000E+000, 0.0000000E+000, 0.0000000E+000, 4.9938334E-003, 0.0000000E+000, 9.3310992E-011,-5.8335687E-001
 3.9000000E+001, 0.0000000E+000, 0.0000000E+000, 0.0000000E+000, 5.0642972E-003,-3.0753467E-010, 0.0000000E+000, 0.0000000E+000, 0.0000000E+000, 0.0000000E+000, 5.0642969E-003, 0.0000000E+000, 9.9164746E-011,-5.8335687E-001
 4.0000000E+001, 0.0000000E+000, 0.0000000E+000, 0.0000000E+000, 5.1337478E-003,-3.2695696E-010, 0.0000000E+000, 0.0000000E+000, 0.0000000E+000, 0.0000000E+000, 5.1337474E-003, 0.0000000E+000, 1.0529462E-010,-5.8335687E-001
 4.1000000E+001, 0.0000000E+000, 0.0000000E+000, 0.0000000E+000, 5.2022262E-003,-3.4733537E-010, 0.0000000E+000, 0.0000000E+000, 0.0000000E+000, 0.0000000E+000, 5.2022259E-003, 0.0000000E+000, 1.1170950E-010,-5.8335687E-001
 4.2000000E+001, 0.0000000E+000, 0.0000000E+000, 0.0000000E+000, 5.2697611E-003,-3.6867581E-010, 0.0000000E+000, 0.0000000E+000, 0.0000000E+000, 0.0000000E+000, 5.2697608E-003, 0.0000000E+000, 1.1841859E-010,-5.8335687E-001
 4.3000000E+001, 0.0000000E+000, 0.0000000E+000, 0.0000000E+000, 5.3363898E-003,-3.9098588E-010, 0.0000000E+000, 0.0000000E+000, 0.0000000E+000, 0.0000000E+000, 5.3363895E-003, 0.0000000E+000, 1.2543056E-010,-5.8335687E-001
 4.4000000E+001, 0.0000000E+000, 0.0000000E+000, 0.0000000E+000, 5.4021548E-003,-4.1434321E-010, 0.0000000E+000, 0.0000000E+000, 0.0000000E+000, 0.0000000E+000, 5.4021544E-003, 0.0000000E+000, 1.3275556E-010,-5.8335687E-001
 4.5000000E+001, 0.0000000E+000, 0.0000000E+000, 0.0000000E+000, 5.4670826E-003,-4.3874618E-010, 0.0000000E+000, 0.0000000E+000, 0.0000000E+000, 0.0000000E+000, 5.4670822E-003, 0.0000000E+000, 1.4040332E-010,-5.8335687E-001
 4.6000000E+001, 0.0000000E+000, 0.0000000E+000, 0.0000000E+000, 5.5311944E-003,-4.6425497E-010, 0.0000000E+000, 0.0000000E+000, 0.0000000E+000, 0.0000000E+000, 5.5311939E-003, 0.0000000E+000, 1.4838361E-010,-5.8335687E-001
 4.7000000E+001, 0.0000000E+000, 0.0000000E+000, 0.0000000E+000, 5.5945240E-003,-4.9089023E-010, 0.0000000E+000, 0.0000000E+000, 0.0000000E+000, 0.0000000E+000, 5.5945235E-003, 0.0000000E+000, 1.5670618E-010,-5.8335687E-001
 4.8000000E+001, 0.0000000E+000, 0.0000000E+000, 0.0000000E+000, 5.6571031E-003,-5.1868666E-010, 0.0000000E+000, 0.0000000E+000, 0.0000000E+000, 0.0000000E+000, 5.6571025E-003, 0.0000000E+000, 1.6538216E-010,-5.8335687E-001
 4.9000000E+001, 0.0000000E+000, 0.0000000E+000, 0.0000000E+000, 5.7189511E-003,-5.4768593E-010, 0.0000000E+000, 0.0000000E+000, 0.0000000E+000, 0.0000000E+000, 5.7189506E-003, 0.0000000E+000, 1.7442192E-010,-5.8335687E-001
 5.0000000E+001, 0.0000000E+000, 0.0000000E+000, 0.0000000E+000, 5.7800936E-003,-5.7793352E-010, 0.0000000E+000, 0.0000000E+000, 0.0000000E+000, 0.0000000E+000, 5.7800930E-003, 0.0000000E+000, 1.8383624E-010,-5.8335687E-001
 5.1000000E+001, 0.0000000E+000, 0.0000000E+000, 0.0000000E+000, 5.8405521E-003,-6.0944580E-010, 0.0000000E+000, 0.0000000E+000, 0.0000000E+000, 0.0000000E+000, 5.8405515E-003, 0.0000000E+000, 1.9363637E-010,-5.8335687E-001
 5.2000000E+001, 0.0000000E+000, 0.0000000E+000, 0.0000000E+000, 5.9003465E-003,-6.4227222E-010, 0.0000000E+000, 0.0000000E+000, 0.0000000E+000, 0.0000000E+000, 5.9003459E-003, 0.0000000E+000, 2.0383354E-010,-5.8335687E-001
 5.3000000E+001, 0.0000000E+000, 0.0000000E+000, 0.0000000E+000, 5.9595047E-003,-6.7648373E-010, 0.0000000E+000, 0.0000000E+000, 0.0000000E+000, 0.0000000E+000, 5.9595041E-003, 0.0000000E+000, 2.1443933E-010,-5.8335687E-001
 5.4000000E+001, 0.0000000E+000, 0.0000000E+000, 0.0000000E+000, 6.0180411E-003,-7.1206314E-010, 0.0000000E+000, 0.0000000E+000, 0.0000000E+000, 0.0000000E+000, 6.0180404E-003, 0.0000000E+000, 2.2546637E-010,-5.8335687E-001
 5.5000000E+001, 0.0000000E+000, 0.0000000E+000, 0.0000000E+000, 6.0759675E-003,-7.4913181E-010, 0.0000000E+000, 0.0000000E+000, 0.0000000E+000, 0.0000000E+000, 6.0759667E-003, 0.0000000E+000, 2.3692568E-010,-5.8335687E-001
 5.6000000E+001, 0.0000000E+000, 0.0000000E+000, 0.0000000E+000, 6.1333082E-003,-7.8762915E-010, 0.0000000E+000, 0.0000000E+000, 0.0000000E+000, 0.0000000E+000, 6.1333074E-003, 0.0000000E+000, 2.4882998E-010,-5.8335687E-001
 5.7000000E+001, 0.0000000E+000, 0.0000000E+000, 0.0000000E+000, 6.1900807E-003,-8.2765209E-010, 0.0000000E+000, 0.0000000E+000, 0.0000000E+000, 0.0000000E+000, 6.1900799E-003, 0.0000000E+000, 2.6119267E-010,-5.8335687E-001
 5.8000000E+001, 0.0000000E+000, 0.0000000E+000, 0.0000000E+000, 6.2463080E-003,-8.6932916E-010, 0.0000000E+000, 0.0000000E+000, 0.0000000E+000, 0.0000000E+000, 6.2463071E-003, 0.0000000E+000, 2.7402625E-010,-5.8335687E-001
 5.9000000E+001, 0.0000000E+000, 0.0000000E+000, 0.0000000E+000, 6.3020022E-003,-9.1254472E-010, 0.0000000E+000, 0.0000000E+000, 0.0000000E+000, 0.0000000E+000, 6.3020013E-003, 0.0000000E+000, 2.8734537E-010,-5.8335687E-001
 6.0000000E+001, 0.0000000E+000, 0.0000000E+000, 0.0000000E+000, 6.3571704E-003,-9.5742218E-010, 0.0000000E+000, 0.0000000E+000, 0.0000000E+000, 0.0000000E+000, 6.3571694E-003, 0.0000000E+000, 3.0116219E-010,-5.8335687E-001
 6.1000000E+001, 0.0000000E+000, 0.0000000E+000, 0.0000000E+000, 6.4118298E-003,-1.0041343E-009, 0.0000000E+000, 0.0000000E+000, 0.0000000E+000, 0.0000000E+000, 6.4118288E-003, 0.0000000E+000, 3.1549071E-010,-5.8335687E-001
 6.2000000E+001, 0.0000000E+000, 0.0000000E+000, 0.0000000E+000, 6.4659982E-003,-1.0524882E-009, 0.0000000E+000, 0.0000000E+000, 0.0000000E+000, 0.0000000E+000, 6.4659971E-003, 0.0000000E+000, 3.3034523E-010,-5.8335687E-001
 6.3000000E+001, 0.0000000E+000, 0.0000000E+000, 0.0000000E+000, 6.5196902E-003,-1.1026571E-009, 0.0000000E+000, 0.0000000E+000, 0.0000000E+000, 0.0000000E+000, 6.5196891E-003, 0.0000000E+000, 3.4574163E-010,-5.8335687E-001
 6.4000000E+001, 0.0000000E+000, 0.0000000E+000, 0.0000000E+000, 6.5729217E-003,-1.1548624E-009, 0.0000000E+000, 0.0000000E+000, 0.0000000E+000, 0.0000000E+000, 6.5729206E-003, 0.0000000E+000, 3.6169363E-010,-5.8335687E-001
 6.5000000E+001, 0.0000000E+000, 0.0000000E+000, 0.0000000E+000, 6.6257019E-003,-1.2088252E-009, 0.0000000E+000, 0.0000000E+000, 0.0000000E+000, 0.0000000E+000, 6.6257006E-003, 0.0000000E+000, 3.7821862E-010,-5.8335687E-001
 6.6000000E+001, 0.0000000E+000, 0.0000000E+000, 0.0000000E+000, 6.6780449E-003,-1.2647597E-009, 0.0000000E+000, 0.0000000E+000, 0.0000000E+000, 0.0000000E+000, 6.6780436E-003, 0.0000000E+000, 3.9533035E-010,-5.8335687E-001
 6.7000000E+001, 0.0000000E+000, 0.0000000E+000, 0.0000000E+000, 6.7299607E-003,-1.3229600E-009, 0.0000000E+000, 0.0000000E+000, 0.0000000E+000, 0.0000000E+000, 6.7299594E-003, 0.0000000E+000, 4.1304653E-010,-5.8335687E-001
 6.8000000E+001, 0.0000000E+000, 0.0000000E+000, 0.0000000E+000, 6.7814534E-003,-1.3830209E-009, 0.0000000E+000, 0.0000000E+000, 0.0000000E+000, 0.0000000E+000, 6.7814520E-003, 0.0000000E+000, 4.3138160E-010,-5.8335687E-001
 6.9000000E+001, 0.0000000E+000, 0.0000000E+000, 0.0000000E+000, 6.8325399E-003,-1.4452276E-009, 0.0000000E+000, 0.0000000E+000, 0.0000000E+000, 0.0000000E+000, 6.8325384E-003, 0.0000000E+000, 4.5035337E-010,-5.8335687E-001
 7.0000000E+001, 0.0000000E+000, 0.0000000E+000, 0.0000000E+000, 6.8832326E-003,-1.5099493E-009, 0.0000000E+000, 0.0000000E+000, 0.0000000E+000, 0.0000000E+000, 6.8832311E-003, 0.0000000E+000, 4.6998000E-010,-5.8335687E-001
 7.1000000E+001, 0.0000000E+000, 0.0000000E+000, 0.0000000E+000, 6.9335476E-003,-1.5766495E-009, 0.0000000E+000, 0.0000000E+000, 0.0000000E+000, 0.0000000E+000, 6.9335460E-003, 0.0000000E+000, 4.9027928E-010,-5.8335687E-001
 7.2000000E+001, 0.0000000E+000, 0.0000000E+000, 0.0000000E+000, 6.9834954E-003,-1.6456861E-009, 0.0000000E+000, 0.0000000E+000, 0.0000000E+000, 0.0000000E+000, 6.9834937E-003, 0.0000000E+000, 5.1126988E-010,-5.8335687E-001
 7.3000000E+001, 0.0000000E+000, 0.0000000E+000, 0.0000000E+000, 7.0330743E-003,-1.7175159E-009, 0.0000000E+000, 0.0000000E+000, 0.0000000E+000, 0.0000000E+000, 7.0330726E-003, 0.0000000E+000, 5.3296980E-010,-5.8335687E-001
 7.4000000E+001, 0.0000000E+000, 0.0000000E+000, 0.0000000E+000, 7.0822932E-003,-1.7914294E-009, 0.0000000E+000, 0.0000000E+000, 0.0000000E+000, 0.0000000E+000, 7.0822914E-003, 0.0000000E+000, 5.5539644E-010,-5.8335687E-001
 7.5000000E+001, 0.0000000E+000, 0.0000000E+000, 0.0000000E+000, 7.1311668E-003,-1.8678826E-009, 0.0000000E+000, 0.0000000E+000, 0.0000000E+000, 0.0000000E+000, 7.1311649E-003, 0.0000000E+000, 5.7857242E-010,-5.8335687E-001
 7.6000000E+001, 0.0000000E+000, 0.0000000E+000, 0.0000000E+000, 7.1797083E-003,-1.9474397E-009, 0.0000000E+000, 0.0000000E+000, 0.0000000E+000, 0.0000000E+000, 7.1797064E-003, 0.0000000E+000, 6.0251625E-010,-5.8335687E-001
 7.7000000E+001, 0.0000000E+000, 0.0000000E+000, 0.0000000E+000, 7.2279279E-003,-2.0291980E-009, 0.0000000E+000, 0.0000000E+000, 0.0000000E+000, 0.0000000E+000, 7.2279258E-003, 0.0000000E+000, 6.2724902E-010,-5.8335687E-001
 7.8000000E+001, 0.0000000E+000, 0.0000000E+000, 0.0000000E+000, 7.2758234E-003,-2.1137109E-009, 0.0000000E+000, 0.0000000E+000, 0.0000000E+000, 0.0000000E+000, 7.2758213E-003, 0.0000000E+000, 6.5279231E-010,-5.8335687E-001
 7.9000000E+001, 0.0000000E+000, 0.0000000E+000, 0.0000000E+000, 7.3234013E-003,-2.2016683E-009, 0.0000000E+000, 0.0000000E+000, 0.0000000E+000, 0.0000000E+000, 7.3233990E-003, 0.0000000E+000, 6.7916507E-010,-5.8335687E-001
 8.0000000E+001, 0.0000000E+000, 0.0000000E+000, 0.0000000E+000, 7.3706826E-003,-2.2919423E-009, 0.0000000E+000, 0.0000000E+000, 0.0000000E+000, 0.0000000E+000, 7.3706803E-003, 0.0000000E+000, 7.0639339E-010,-5.8335687E-001
 8.1000000E+001, 0.0000000E+000, 0.0000000E+000, 0.0000000E+000, 7.4176678E-003,-2.3852060E-009, 0.0000000E+000, 0.0000000E+000, 0.0000000E+000, 0.0000000E+000, 7.4176654E-003, 0.0000000E+000, 7.3449906E-010,-5.8335687E-001
 8.2000000E+001, 0.0000000E+000, 0.0000000E+000, 0.0000000E+000, 7.4643630E-003,-2.4823008E-009, 0.0000000E+000, 0.0000000E+000, 0.0000000E+000, 0.0000000E+000, 7.4643605E-003, 0.0000000E+000, 7.6350228E-010,-5.8335687E-001
 8.3000000E+001, 0.0000000E+000, 0.0000000E+000, 0.0000000E+000, 7.5107802E-003,-2.5818171E-009, 0.0000000E+000, 0.0000000E+000, 0.0000000E+000, 0.0000000E+000, 7.5107777E-003, 0.0000000E+000, 7.9343086E-010,-5.8335687E-001
 8.4000000E+001, 0.0000000E+000, 0.0000000E+000, 0.0000000E+000, 7.5569261E-003,-2.6845797E-009, 0.0000000E+000, 0.0000000E+000, 0.0000000E+000, 0.0000000E+000, 7.5569234E-003, 0.0000000E+000, 8.2430909E-010,-5.8335687E-001
 8.5000000E+001, 0.0000000E+000, 0.0000000E+000, 0.0000000E+000, 7.6028021E-003,-2.7906721E-009, 0.0000000E+000, 0.0000000E+000, 0.0000000E+000, 0.0000000E+000, 7.6027993E-003, 0.0000000E+000, 8.5616097E-010,-5.8335687E-001
 8.6000000E+001, 0.0000000E+000, 0.0000000E+000, 0.0000000E+000, 7.6484162E-003,-2.9011508E-009, 0.0000000E+000, 0.0000000E+000, 0.0000000E+000, 0.0000000E+000, 7.6484133E-003, 0.0000000E+000, 8.8900870E-010,-5.8335687E-001
 8.7000000E+001, 0.0000000E+000, 0.0000000E+000, 0.0000000E+000, 7.6937786E-003,-3.0142128E-009, 0.0000000E+000, 0.0000000E+000, 0.0000000E+000, 0.0000000E+000, 7.6937756E-003, 0.0000000E+000, 9.2288432E-010,-5.8335687E-001
 8.8000000E+001, 0.0000000E+000, 0.0000000E+000, 0.0000000E+000, 7.7388945E-003,-3.1308881E-009, 0.0000000E+000, 0.0000000E+000, 0.0000000E+000, 0.0000000E+000, 7.7388914E-003, 0.0000000E+000, 9.5781321E-010,-5.8335687E-001
 8.9000000E+001, 0.0000000E+000, 0.0000000E+000, 0.0000000E+000, 7.7837742E-003,-3.2524544E-009, 0.0000000E+000, 0.0000000E+000, 0.0000000E+000, 0.0000000E+000, 7.7837709E-003, 0.0000000E+000, 9.9382279E-010,-5.8335687E-001
 9.0000000E+001, 0.0000000E+000, 0.0000000E+000, 0.0000000E+000, 7.8284120E-003,-3.3766928E-009, 0.0000000E+000, 0.0000000E+000, 0.0000000E+000, 0.0000000E+000, 7.8284086E-003, 0.0000000E+000, 1.0309411E-009,-5.8335687E-001
 9.1000000E+001, 0.0000000E+000, 0.0000000E+000, 0.0000000E+000, 7.8728131E-003,-3.5048342E-009, 0.0000000E+000, 0.0000000E+000, 0.0000000E+000, 0.0000000E+000, 7.8728096E-003, 0.0000000E+000, 1.0691941E-009,-5.8335687E-001
 9.2000000E+001, 0.0000000E+000, 0.0000000E+000, 0.0000000E+000, 7.9169961E-003,-3.6370041E-009, 0.0000000E+000, 0.0000000E+000, 0.0000000E+000, 0.0000000E+000, 7.9169924E-003, 0.0000000E+000, 1.1086174E-009,-5.8335687E-001
 9.3000000E+001, 0.0000000E+000, 0.0000000E+000, 0.0000000E+000, 7.9609664E-003,-3.7747763E-009, 0.0000000E+000, 0.0000000E+000, 0.0000000E+000, 0.0000000E+000, 7.9609627E-003, 0.0000000E+000, 1.1492397E-009,-5.8335687E-001
 9.4000000E+001, 0.0000000E+000, 0.0000000E+000, 0.0000000E+000, 8.0047195E-003,-3.9153694E-009, 0.0000000E+000, 0.0000000E+000, 0.0000000E+000, 0.0000000E+000, 8.0047156E-003, 0.0000000E+000, 1.1910917E-009,-5.8335687E-001
 9.5000000E+001, 0.0000000E+000, 0.0000000E+000, 0.0000000E+000, 8.0482665E-003,-4.0603220E-009, 0.0000000E+000, 0.0000000E+000, 0.0000000E+000, 0.0000000E+000, 8.0482624E-003, 0.0000000E+000, 1.2342068E-009,-5.8335687E-001
 9.6000000E+001, 0.0000000E+000, 0.0000000E+000, 0.0000000E+000, 8.0916147E-003,-4.2115046E-009, 0.0000000E+000, 0.0000000E+000, 0.0000000E+000, 0.0000000E+000, 8.0916105E-003, 0.0000000E+000, 1.2786172E-009,-5.8335687E-001
 9.7000000E+001, 0.0000000E+000, 0.0000000E+000, 0.0000000E+000, 8.1347572E-003,-4.3655809E-009, 0.0000000E+000, 0.0000000E+000, 0.0000000E+000, 0.0000000E+000, 8.1347529E-003, 0.0000000E+000, 1.3243547E-009,-5.8335687E-001
 9.8000000E+001, 0.0000000E+000, 0.0000000E+000, 0.0000000E+000, 8.1777001E-003,-4.5243611E-009, 0.0000000E+000, 0.0000000E+000, 0.0000000E+000, 0.0000000E+000, 8.1776956E-003, 0.0000000E+000, 1.3714516E-009,-5.8335687E-001
 9.9000000E+001, 0.0000000E+000, 0.0000000E+000, 0.0000000E+000, 8.2204598E-003,-4.6879972E-009, 0.0000000E+000, 0.0000000E+000, 0.0000000E+000, 0.0000000E+000, 8.2204551E-003, 0.0000000E+000, 1.4199507E-009,-5.8335687E-001
 1.0000000E+002, 0.0000000E+000, 0.0000000E+000, 0.0000000E+000, 8.2630405E-003,-4.8587621E-009, 0.0000000E+000, 0.0000000E+000, 0.0000000E+000, 0.0000000E+000, 8.2630357E-003, 0.0000000E+000, 1.4698843E-009,-5.8335687E-001
 1.0100000E+002, 0.0000000E+000, 0.0000000E+000, 0.0000000E+000, 8.3054384E-003,-5.0325515E-009, 0.0000000E+000, 0.0000000E+000, 0.0000000E+000, 0.0000000E+000, 8.3054334E-003, 0.0000000E+000, 1.5212903E-009,-5.8335687E-001
 1.0200000E+002, 0.0000000E+000, 0.0000000E+000, 0.0000000E+000, 8.3476624E-003,-5.2115933E-009, 0.0000000E+000, 0.0000000E+000, 0.0000000E+000, 0.0000000E+000, 8.3476571E-003, 0.0000000E+000, 1.5742092E-009,-5.8335687E-001
 1.0300000E+002, 0.0000000E+000, 0.0000000E+000, 0.0000000E+000, 8.3897187E-003,-5.3960139E-009, 0.0000000E+000, 0.0000000E+000, 0.0000000E+000, 0.0000000E+000, 8.3897134E-003, 0.0000000E+000, 1.6286762E-009,-5.8335687E-001
 1.0400000E+002, 0.0000000E+000, 0.0000000E+000, 0.0000000E+000, 8.4316043E-003,-5.5885929E-009, 0.0000000E+000, 0.0000000E+000, 0.0000000E+000, 0.0000000E+000, 8.4315987E-003, 0.0000000E+000, 1.6847326E-009,-5.8335687E-001
 1.0500000E+002, 0.0000000E+000, 0.0000000E+000, 0.0000000E+000, 8.4733277E-003,-5.7843122E-009, 0.0000000E+000, 0.0000000E+000, 0.0000000E+000, 0.0000000E+000, 8.4733219E-003, 0.0000000E+000, 1.7424220E-009,-5.8335687E-001
 1.0600000E+002, 0.0000000E+000, 0.0000000E+000, 0.0000000E+000, 8.5148952E-003,-5.9858532E-009, 0.0000000E+000, 0.0000000E+000, 0.0000000E+000, 0.0000000E+000, 8.5148892E-003, 0.0000000E+000, 1.8017827E-009,-5.8335687E-001
 1.0700000E+002, 0.0000000E+000, 0.0000000E+000, 0.0000000E+000, 8.5563032E-003,-6.1964592E-009, 0.0000000E+000, 0.0000000E+000, 0.0000000E+000, 0.0000000E+000, 8.5562970E-003, 0.0000000E+000, 1.8628584E-009,-5.8335687E-001
 1.0800000E+002, 0.0000000E+000, 0.0000000E+000, 0.0000000E+000, 8.5975602E-003,-6.4102306E-009, 0.0000000E+000, 0.0000000E+000, 0.0000000E+000, 0.0000000E+000, 8.5975538E-003, 0.0000000E+000, 1.9256963E-009,-5.8335687E-001
 1.0900000E+002, 0.0000000E+000, 0.0000000E+000, 0.0000000E+000, 8.6386724E-003,-6.6303001E-009, 0.0000000E+000, 0.0000000E+000, 0.0000000E+000, 0.0000000E+000, 8.6386658E-003, 0.0000000E+000, 1.9903377E-009,-5.8335687E-001
 1.1000000E+002, 0.0000000E+000, 0.0000000E+000, 0.0000000E+000, 8.6796359E-003,-6.8568356E-009, 0.0000000E+000, 0.0000000E+000, 0.0000000E+000, 0.0000000E+000, 8.6796290E-003, 0.0000000E+000, 2.0568296E-009,-5.8335687E-001
 1.1100000E+002, 0.0000000E+000, 0.0000000E+000, 0.0000000E+000, 8.7204588E-003,-7.0937476E-009, 0.0000000E+000, 0.0000000E+000, 0.0000000E+000, 0.0000000E+000, 8.7204517E-003, 0.0000000E+000, 2.1252228E-009,-5.8335687E-001
 1.1200000E+002, 0.0000000E+000, 0.0000000E+000, 0.0000000E+000, 8.7611469E-003,-7.3338661E-009, 0.0000000E+000, 0.0000000E+000, 0.0000000E+000, 0.0000000E+000, 8.7611396E-003, 0.0000000E+000, 2.1955615E-009,-5.8335687E-001
 1.1300000E+002, 0.0000000E+000, 0.0000000E+000, 0.0000000E+000, 8.8016961E-003,-7.5809769E-009, 0.0000000E+000, 0.0000000E+000, 0.0000000E+000, 0.0000000E+000, 8.8016885E-003, 0.0000000E+000, 2.2678962E-009,-5.8335687E-001
 1.1400000E+002, 0.0000000E+000, 0.0000000E+000, 0.0000000E+000, 8.8421144E-003,-7.8352775E-009, 0.0000000E+000, 0.0000000E+000, 0.0000000E+000, 0.0000000E+000, 8.8421065E-003, 0.0000000E+000, 2.3422817E-009,-5.8335687E-001
 1.1500000E+002, 0.0000000E+000, 0.0000000E+000, 0.0000000E+000, 8.8824071E-003,-8.1014162E-009, 0.0000000E+000, 0.0000000E+000, 0.0000000E+000, 0.0000000E+000, 8.8823990E-003, 0.0000000E+000, 2.4187655E-009,-5.8335687E-001
 1.1600000E+002, 0.0000000E+000, 0.0000000E+000, 0.0000000E+000, 8.9225700E-003,-8.3707833E-009, 0.0000000E+000, 0.0000000E+000, 0.0000000E+000, 0.0000000E+000, 8.9225617E-003, 0.0000000E+000, 2.4974022E-009,-5.8335687E-001
 1.1700000E+002, 0.0000000E+000, 0.0000000E+000, 0.0000000E+000, 8.9626110E-003,-8.6479212E-009, 0.0000000E+000, 0.0000000E+000, 0.0000000E+000, 0.0000000E+000, 8.9626024E-003, 0.0000000E+000, 2.5782496E-009,-5.8335687E-001
 1.1800000E+002, 0.0000000E+000, 0.0000000E+000, 0.0000000E+000, 9.0025353E-003,-8.9330153E-009, 0.0000000E+000, 0.0000000E+000, 0.0000000E+000, 0.0000000E+000, 9.0025263E-003, 0.0000000E+000, 2.6613592E-009,-5.8335687E-001
 1.1900000E+002, 0.0000000E+000, 0.0000000E+000, 0.0000000E+000, 9.0423382E-003,-9.2316278E-009, 0.0000000E+000, 0.0000000E+000, 0.0000000E+000, 0.0000000E+000, 9.0423289E-003, 0.0000000E+000, 2.7467896E-009,-5.8335687E-001
 1.2000000E+002, 0.0000000E+000, 0.0000000E+000, 0.0000000E+000, 9.0820273E-003,-9.5334554E-009, 0.0000000E+000, 0.0000000E+000, 0.0000000E+000, 0.0000000E+000, 9.0820177E-003, 0.0000000E+000, 2.8346028E-009,-5.8335687E-001
 1.2100000E+002, 0.0000000E+000, 0.0000000E+000, 0.0000000E+000, 9.1216076E-003,-9.8438795E-009, 0.0000000E+000, 0.0000000E+000, 0.0000000E+000, 0.0000000E+000, 9.1215978E-003, 0.0000000E+000, 2.9248542E-009,-5.8335687E-001
 1.2200000E+002, 0.0000000E+000, 0.0000000E+000, 0.0000000E+000, 9.1610800E-003,-1.0163133E-008, 0.0000000E+000, 0.0000000E+000, 0.0000000E+000, 0.0000000E+000, 9.1610698E-003, 0.0000000E+000, 3.0176081E-009,-5.8335687E-001
 1.2300000E+002, 0.0000000E+000, 0.0000000E+000, 0.0000000E+000, 9.2004413E-003,-1.0497840E-008, 0.0000000E+000, 0.0000000E+000, 0.0000000E+000, 0.0000000E+000, 9.2004308E-003, 0.0000000E+000, 3.1129355E-009,-5.8335687E-001
 1.2400000E+002, 0.0000000E+000, 0.0000000E+000, 0.0000000E+000, 9.2396960E-003,-1.0835624E-008, 0.0000000E+000, 0.0000000E+000, 0.0000000E+000, 0.0000000E+000, 9.2396851E-003, 0.0000000E+000, 3.2108786E-009,-5.8335687E-001
 1.2500000E+002, 0.0000000E+000, 0.0000000E+000, 0.0000000E+000, 9.2788545E-003,-1.1182958E-008, 0.0000000E+000, 0.0000000E+000, 0.0000000E+000, 0.0000000E+000, 9.2788434E-003, 0.0000000E+000, 3.3115216E-009,-5.8335687E-001
 1.2600000E+002, 0.0000000E+000, 0.0000000E+000, 0.0000000E+000, 9.3179162E-003,-1.1540103E-008, 0.0000000E+000, 0.0000000E+000, 0.0000000E+000, 0.0000000E+000, 9.3179047E-003, 0.0000000E+000, 3.4149374E-009,-5.8335687E-001
 1.2700000E+002, 0.0000000E+000, 0.0000000E+000, 0.0000000E+000, 9.3568741E-003,-1.1914824E-008, 0.0000000E+000, 0.0000000E+000, 0.0000000E+000, 0.0000000E+000, 9.3568622E-003, 0.0000000E+000, 3.5211833E-009,-5.8335687E-001
 1.2800000E+002, 0.0000000E+000, 0.0000000E+000, 0.0000000E+000, 9.3957346E-003,-1.2292478E-008, 0.0000000E+000, 0.0000000E+000, 0.0000000E+000, 0.0000000E+000, 9.3957223E-003, 0.0000000E+000, 3.6303204E-009,-5.8335687E-001
 1.2900000E+002, 0.0000000E+000, 0.0000000E+000, 0.0000000E+000, 9.4345081E-003,-1.2680733E-008, 0.0000000E+000, 0.0000000E+000, 0.0000000E+000, 0.0000000E+000, 9.4344954E-003, 0.0000000E+000, 3.7424457E-009,-5.8335687E-001
 1.3000000E+002, 0.0000000E+000, 0.0000000E+000, 0.0000000E+000, 9.4731871E-003,-1.3079809E-008, 0.0000000E+000, 0.0000000E+000, 0.0000000E+000, 0.0000000E+000, 9.4731741E-003, 0.0000000E+000, 3.8576199E-009,-5.8335687E-001
 1.3100000E+002, 0.0000000E+000, 0.0000000E+000, 0.0000000E+000, 9.5117769E-003,-1.3498923E-008, 0.0000000E+000, 0.0000000E+000, 0.0000000E+000, 0.0000000E+000, 9.5117634E-003, 0.0000000E+000, 3.9759212E-009,-5.8335687E-001
 1.3200000E+002, 0.0000000E+000, 0.0000000E+000, 0.0000000E+000, 9.5502826E-003,-1.3920767E-008, 0.0000000E+000, 0.0000000E+000, 0.0000000E+000, 0.0000000E+000, 9.5502687E-003, 0.0000000E+000, 4.0974237E-009,-5.8335687E-001