s,m,C,C
Time,"Wall thickness","Wall_temperature","Back_wall_temperature"
 0.0000000E+000, 8.0000004E-003, 2.5000000E+001, 2.5000000E+001
 1.0000000E+000, 8.0000004E-003, 2.4999971E+001, 2.5000000E+001
 2.0000000E+000, 8.0000004E-003, 1.0537248E+002, 2.5000000E+001
 3.0000000E+000, 8.0000004E-003, 1.5519440E+002, 2.5000000E+001
 4.0000000E+000, 8.0000004E-003, 1.9301506E+002, 2.5000002E+001
 5.0000000E+000, 8.0000004E-003, 2.2437737E+002, 2.5000008E+001
 6.0000000E+000, 8.0000004E-003, 2.5142780E+002, 2.5000050E+001
 7.0000000E+000, 8.0000004E-003, 2.7541364E+002, 2.5000219E+001
 8.0000000E+000, 8.0000004E-003, 2.9751642E+002, 2.5000784E+001
 9.0000000E+000, 8.0000004E-003, 3.1885956E+002, 2.5002344E+001
 1.0000000E+001, 8.0000004E-003, 3.3870068E+002, 2.5006058E+001
 1.1000000E+001, 8.0000004E-003, 3.5601022E+002, 2.5013880E+001
 1.2000000E+001, 8.0000004E-003, 3.7135059E+002, 2.5028717E+001
 1.3000000E+001, 8.0000004E-003, 3.8520081E+002, 2.5054523E+001
 1.4000000E+001, 8.0000004E-003, 3.9774829E+002, 2.5096235E+001
 1.5000000E+001, 8.0000004E-003, 4.0901453E+002, 2.5159636E+001
 1.6000000E+001, 8.0000004E-003, 4.1898340E+002, 2.5251125E+001
 1.7000000E+001, 8.0000004E-003, 4.2768063E+002, 2.5377489E+001
 1.8000000E+001, 8.0000004E-003, 4.3525821E+002, 2.5545647E+001
 1.9000000E+001, 8.0000004E-003, 4.4198438E+002, 2.5762430E+001
 2.0000000E+001, 8.0000004E-003, 4.4818436E+002, 2.6034418E+001
 2.1000000E+001, 8.0000004E-003, 4.5429929E+002, 2.6367792E+001
 2.2000000E+001, 8.0000004E-003, 4.6062137E+002, 2.6768223E+001
 2.3000000E+001, 8.0000004E-003, 4.6739282E+002, 2.7240801E+001
 2.4000000E+001, 8.0000004E-003, 4.7492902E+002, 2.7789986E+001
 2.5000000E+001, 8.0000004E-003, 4.8320041E+002, 2.8419588E+001
 2.6000000E+001, 8.0000004E-003, 4.9185358E+002, 2.9132725E+001
 2.7000000E+001, 8.0000004E-003, 5.0001840E+002, 2.9931839E+001
 2.8000000E+001, 8.0000004E-003, 5.0634711E+002, 3.0818716E+001
 2.9000000E+001, 8.0000004E-003, 5.1177332E+002, 3.1794495E+001
 3.0000000E+001, 8.0000004E-003, 5.1664813E+002, 3.2859768E+001
 3.1000000E+001, 8.0000004E-003, 5.2127991E+002, 3.4014565E+001
 3.2000000E+001, 8.0000004E-003, 5.2582379E+002, 3.5258408E+001
 3.3000000E+001, 8.0000004E-003, 5.3042468E+002, 3.6590473E+001
 3.4000000E+001, 8.0000004E-003, 5.3513837E+002, 3.8009613E+001
 3.5000000E+001, 8.0000004E-003, 5.4003839E+002, 3.9514351E+001
 3.6000000E+001, 8.0000004E-003, 5.4504907E+002, 4.1103043E+001
 3.7000000E+001, 8.0000004E-003, 5.5005420E+002, 4.2773830E+001
 3.8000000E+001, 8.0000004E-003, 5.5481097E+002, 4.4524754E+001
 3.9000000E+001, 8.0000004E-003, 5.5913013E+002, 4.6353573E+001
 4.0000000E+001, 8.0000004E-003, 5.6295599E+002, 4.8258076E+001
 4.1000000E+001, 8.0000004E-003, 5.6645746E+002, 5.0235851E+001
 4.2000000E+001, 8.0000004E-003, 5.6973065E+002, 5.2284420E+001
 4.3000000E+001, 8.0000004E-003, 5.7287549E+002, 5.4401344E+001
 4.4000000E+001, 8.0000004E-003, 5.7596228E+002, 5.6584183E+001
 4.5000000E+001, 8.0000004E-003, 5.7903400E+002, 5.8830368E+001
 4.6000000E+001, 8.0000004E-003, 5.8213922E+002, 6.1137501E+001
 4.7000000E+001, 8.0000004E-003, 5.8527930E+002, 6.3503155E+001
 4.8000000E+001, 8.0000004E-003, 5.8844214E+002, 6.5924866E+001
 4.9000000E+001, 8.0000004E-003, 5.9157349E+002, 6.8400215E+001
 5.0000000E+001, 8.0000004E-003, 5.9464539E+002, 7.0926903E+001
 5.1000000E+001, 8.0000004E-003, 5.9755420E+002, 7.3502487E+001
 5.2000000E+001, 8.0000004E-003, 6.0029944E+002, 7.6124695E+001
 5.3000000E+001, 8.0000004E-003, 6.0285211E+002, 7.8791176E+001
 5.4000000E+001, 8.0000004E-003, 6.0526263E+002, 8.1499794E+001
 5.5000000E+001, 8.0000004E-003, 6.0755908E+002, 8.4248329E+001
 5.6000000E+001, 8.0000004E-003, 6.0979810E+002, 8.7034729E+001
 5.7000000E+001, 8.0000004E-003, 6.1197986E+002, 8.9856979E+001
 5.8000000E+001, 8.0000004E-003, 6.1413263E+002, 9.2713158E+001
 5.9000000E+001, 8.0000004E-003, 6.1628802E+002, 9.5601364E+001
 6.0000000E+001, 8.0000004E-003, 6.1843268E+002, 9.8519707E+001
 6.1000000E+001, 8.0000004E-003, 6.2057837E+002, 1.0146647E+002
 6.2000000E+001, 8.0000004E-003, 6.2271478E+002, 1.0443980E+002
 6.3000000E+001, 8.0000004E-003, 6.2482159E+002, 1.0743800E+002
 6.4000000E+001, 8.0000004E-003, 6.2686517E+002, 1.1045938E+002
 6.5000000E+001, 8.0000004E-003, 6.2885992E+002, 1.1350229E+002
 6.6000000E+001, 8.0000004E-003, 6.3076453E+002, 1.1656514E+002
 6.7000000E+001, 8.0000004E-003, 6.3258899E+002, 1.1964655E+002
 6.8000000E+001, 8.0000004E-003, 6.3435028E+002, 1.2274511E+002
 6.9000000E+001, 8.0000004E-003, 6.3604364E+002, 1.2585938E+002
 7.0000000E+001, 8.0000004E-003, 6.3769775E+002, 1.2898811E+002
 7.1000000E+001, 8.0000004E-003, 6.3932159E+002, 1.3213004E+002
 7.2000000E+001, 8.0000004E-003, 6.4091888E+002, 1.3528401E+002
 7.3000000E+001, 8.0000004E-003, 6.4250037E+002, 1.3844881E+002
 7.4000000E+001, 8.0000004E-003, 6.4407568E+002, 1.4162323E+002
 7.5000000E+001, 8.0000004E-003, 6.4564087E+002, 1.4480612E+002
 7.6000000E+001, 8.0000004E-003, 6.4719641E+002, 1.4799640E+002
 7.7000000E+001, 8.0000004E-003, 6.4873743E+002, 1.5119296E+002
 7.8000000E+001, 8.0000004E-003, 6.5026025E+002, 1.5439481E+002
 7.9000000E+001, 8.0000004E-003, 6.5174896E+002, 1.5760092E+002
 8.0000000E+001, 8.0000004E-003, 6.5321289E+002, 1.6081039E+002
 8.1000000E+001, 8.0000004E-003, 6.5463049E+002, 1.6402237E+002
 8.2000000E+001, 8.0000004E-003, 6.5601422E+002, 1.6723601E+002
 8.3000000E+001, 8.0000004E-003, 6.5735919E+002, 1.7045056E+002
 8.4000000E+001, 8.0000013E-003, 6.5867194E+002, 1.7366525E+002
 8.5000000E+001, 8.0000013E-003, 6.5995190E+002, 1.7687936E+002
 8.6000000E+001, 8.0000013E-003, 6.6122107E+002, 1.8009215E+002
 8.7000000E+001, 8.0000013E-003, 6.6246765E+002, 1.8330287E+002
 8.8000000E+001, 8.0000013E-003, 6.6371014E+002, 1.8651079E+002
 8.9000000E+001, 8.0000013E-003, 6.6493768E+002, 1.8971519E+002
 9.0000000E+001, 8.0000013E-003, 6.6615710E+002, 1.9291541E+002
 9.1000000E+001, 8.0000013E-003, 6.6736292E+002, 1.9611073E+002
 9.2000000E+001, 8.0000013E-003, 6.6857434E+002, 1.9930057E+002
 9.3000000E+001, 8.0000013E-003, 6.6976019E+002, 2.0248428E+002
 9.4000000E+001, 8.0000013E-003, 6.7093518E+002, 2.0566135E+002
 9.5000000E+001, 8.0000013E-003, 6.7210059E+002, 2.0883127E+002
 9.6000000E+001, 8.0000013E-003, 6.7323309E+002, 2.1199352E+002
 9.7000000E+001, 8.0000013E-003, 6.7434705E+002, 2.1514761E+002
 9.8000000E+001, 8.0000013E-003, 6.7544611E+002, 2.1829311E+002
 9.9000000E+001, 8.0000013E-003, 6.7652148E+002, 2.2142950E+002
 1.0000000E+002, 8.0000013E-003, 6.7757440E+002, 2.2455640E+002
 1.0100000E+002, 8.0000013E-003, 6.7862518E+002, 2.2767320E+002
 1.0200000E+002, 8.0000013E-003, 6.7965247E+002, 2.3077943E+002
 1.0300000E+002, 8.0000013E-003, 6.8067761E+002, 2.3387460E+002
 1.0400000E+002, 8.0000013E-003, 6.8168811E+002, 2.3695815E+002
 1.0500000E+002, 8.0000013E-003, 6.8270038E+002, 2.4002968E+002
 1.0600000E+002, 8.0000013E-003, 6.8369214E+002, 2.4308878E+002
 1.0700000E+002, 8.0000013E-003, 6.8468677E+002, 2.4613493E+002
 1.0800000E+002, 8.0000013E-003, 6.8567395E+002, 2.4916783E+002
 1.0900000E+002, 8.0000013E-003, 6.8665057E+002, 2.5218710E+002
 1.1000000E+002, 8.0000013E-003, 6.8761285E+002, 2.5519243E+002
 1.1100000E+002, 8.0000013E-003, 6.8856958E+002, 2.5818347E+002
 1.1200000E+002, 8.0000013E-003, 6.8950623E+002, 2.6115991E+002
 1.1300000E+002, 8.0000013E-003, 6.9044012E+002, 2.6412143E+002
 1.1400000E+002, 8.0000013E-003, 6.9135864E+002, 2.6706772E+002
 1.1500000E+002, 8.0000013E-003, 6.9225873E+002, 2.6999844E+002
 1.1600000E+002, 8.0000013E-003, 6.9315839E+002, 2.7291324E+002
 1.1700000E+002, 8.0000013E-003, 6.9403998E+002, 2.7581186E+002
 1.1800000E+002, 8.0000013E-003, 6.9491559E+002, 2.7869406E+002
 1.1900000E+002, 8.0000013E-003, 6.9578851E+002, 2.8155942E+002
 1.2000000E+002, 8.0000013E-003, 6.9665491E+002, 2.8440768E+002
 1.2100000E+002, 8.0000013E-003, 6.9751178E+002, 2.8723859E+002
 1.2200000E+002, 8.0000013E-003, 6.9836816E+002, 2.9005182E+002
 1.2300000E+002, 8.0000013E-003, 6.9921088E+002, 2.9284698E+002
 1.2400000E+002, 8.0000013E-003, 7.0005457E+002, 2.9562372E+002
 1.2500000E+002, 8.0000013E-003, 7.0088202E+002, 2.9838159E+002
 1.2600000E+002, 8.0000013E-003, 7.0170703E+002, 3.0112003E+002
 1.2700000E+002, 8.0000013E-003, 7.0252368E+002, 3.0383853E+002
 1.2800000E+002, 8.0000013E-003, 7.0333099E+002, 3.0653638E+002
 1.2900000E+002, 8.0000013E-003, 7.0413159E+002, 3.0921289E+002
 1.3000000E+002, 8.0000013E-003, 7.0491956E+002, 3.1186728E+002
 1.3100000E+002, 8.0000013E-003, 7.0570734E+002, 3.1449875E+002
 1.3200000E+002, 8.0000013E-003, 7.0648541E+002, 3.1710651E+002
 1.3300000E+002, 8.0000013E-003, 7.0725269E+002, 3.1968964E+002
 1.3400000E+002, 8.0000013E-003, 7.0802283E+002, 3.2224725E+002
 1.3500000E+002, 8.0000013E-003, 7.0878003E+002, 3.2477847E+002
 1.3600000E+002, 8.0000013E-003, 7.0953839E+002, 3.2728232E+002
 1.3700000E+002, 8.0000013E-003, 7.1028668E+002, 3.2975778E+002
 1.3800000E+002, 8.0000013E-003, 7.1102728E+002, 3.3220377E+002
 1.3900000E+002, 8.0000013E-003, 7.1176556E+002, 3.3461911E+002
 1.4000000E+002, 8.0000013E-003, 7.1249982E+002, 3.3700259E+002
 1.4100000E+002, 8.0000013E-003, 7.1322400E+002, 3.3935303E+002
 1.4200000E+002, 8.0000013E-003, 7.1394061E+002, 3.4166907E+002
 1.4300000E+002, 8.0000013E-003, 7.1465906E+002, 3.4394946E+002
 1.4400000E+002, 8.0000013E-003, 7.1536157E+002, 3.4619287E+002
 1.4500000E+002, 8.0000013E-003, 7.1606421E+002, 3.4839801E+002
 1.4600000E+002, 8.0000013E-003, 7.1676074E+002, 3.5056363E+002
 1.4700000E+002, 8.0000013E-003, 7.1745398E+002, 3.5268848E+002
 1.4800000E+002, 8.0000013E-003, 7.1813306E+002, 3.5477139E+002
 1.4900000E+002, 8.0000013E-003, 7.1881610E+002, 3.5681125E+002
 1.5000000E+002, 8.0000013E-003, 7.1948981E+002, 3.5880688E+002
 1.5100000E+002, 8.0000013E-003, 7.2016217E+002, 3.6075735E+002
 1.5200000E+002, 8.0000013E-003, 7.2082513E+002, 3.6266171E+002
 1.5300000E+002, 8.0000013E-003, 7.2148492E+002, 3.6451935E+002
 1.5400000E+002, 8.0000013E-003, 7.2214111E+002, 3.6632962E+002
 1.5500000E+002, 8.0000013E-003, 7.2278894E+002, 3.6809219E+002
 1.5600000E+002, 8.0000013E-003, 7.2343420E+002, 3.6980695E+002
 1.5700000E+002, 8.0000013E-003, 7.2407336E+002, 3.7147388E+002
 1.5800000E+002, 8.0000013E-003, 7.2470563E+002, 3.7309338E+002
 1.5900000E+002, 8.0000013E-003, 7.2533789E+002, 3.7466608E+002
 1.6000000E+002, 8.0000013E-003, 7.2595764E+002, 3.7619281E+002
 1.6100000E+002, 8.0000013E-003, 7.2657794E+002, 3.7767471E+002
 1.6200000E+002, 8.0000013E-003, 7.2719318E+002, 3.7911304E+002
 1.6300000E+002, 8.0000013E-003, 7.2779919E+002, 3.8050940E+002
 1.6400000E+002, 8.0000013E-003, 7.2841040E+002, 3.8186557E+002
 1.6500000E+002, 8.0000013E-003, 7.2900610E+002, 3.8318375E+002
 1.6600000E+002, 8.0000013E-003, 7.2960400E+002, 3.8446609E+002
 1.6700000E+002, 8.0000013E-003, 7.3019061E+002, 3.8571521E+002
 1.6800000E+002, 8.0000022E-003, 7.3077863E+002, 3.8693372E+002
 1.6900000E+002, 8.0000022E-003, 7.3135321E+002, 3.8812430E+002
 1.7000000E+002, 8.0000022E-003, 7.3193793E+002, 3.8928992E+002
 1.7100000E+002, 8.0000022E-003, 7.3250305E+002, 3.9043350E+002
 1.7200000E+002, 8.0000022E-003, 7.3307355E+002, 3.9155804E+002
 1.7300000E+002, 8.0000022E-003, 7.3363379E+002, 3.9266681E+002
 1.7400000E+002, 8.0000022E-003, 7.3419281E+002, 3.9376273E+002
 1.7500000E+002, 8.0000022E-003, 7.3474603E+002, 3.9484885E+002
 1.7600000E+002, 8.0000022E-003, 7.3529193E+002, 3.9592844E+002
 1.7700000E+002, 8.0000022E-003, 7.3584064E+002, 3.9700446E+002
 1.7800000E+002, 8.0000022E-003, 7.3637720E+002, 3.9807980E+002
 1.7900000E+002, 8.0000022E-003, 7.3691052E+002, 3.9915765E+002
 1.8000000E+002, 8.0000022E-003, 7.3744440E+002, 4.0024103E+002
 1.8100000E+002, 8.0000022E-003, 7.3796777E+002, 4.0133273E+002
 1.8200000E+002, 8.0000022E-003, 7.3848700E+002, 4.0243567E+002
 1.8300000E+002, 8.0000022E-003, 7.3900781E+002, 4.0355270E+002
 1.8400000E+002, 8.0000022E-003, 7.3951819E+002, 4.0468671E+002
 1.8500000E+002, 8.0000022E-003, 7.4002899E+002, 4.0584033E+002
 1.8600000E+002, 8.0000022E-003, 7.4053339E+002, 4.0701651E+002
 1.8700000E+002, 8.0000022E-003, 7.4103235E+002, 4.0821823E+002
 1.8800000E+002, 8.0000022E-003, 7.4153278E+002, 4.0944864E+002
 1.8900000E+002, 8.0000022E-003, 7.4202008E+002, 4.1071036E+002
 1.9000000E+002, 8.0000022E-003, 7.4251337E+002, 4.1200644E+002
 1.9100000E+002, 8.0000022E-003, 7.4299561E+002, 4.1334048E+002
 1.9200000E+002, 8.0000022E-003, 7.4348022E+002, 4.1471576E+002
 1.9300000E+002, 8.0000022E-003, 7.4395325E+002, 4.1613623E+002
 1.9400000E+002, 8.0000022E-003, 7.4443231E+002, 4.1760495E+002
 1.9500000E+002, 8.0000022E-003, 7.4489880E+002, 4.1912668E+002
 1.9600000E+002, 8.0000022E-003, 7.4536871E+002, 4.2070569E+002
 1.9700000E+002, 8.0000022E-003, 7.4583362E+002, 4.2234674E+002
 1.9800000E+002, 8.0000022E-003, 7.4629169E+002, 4.2405530E+002
 1.9900000E+002, 8.0000022E-003, 7.4674829E+002, 4.2583652E+002
 2.0000000E+002, 8.0000022E-003, 7.4720422E+002, 4.2769696E+002
 2.0100000E+002, 8.0000022E-003, 7.4765491E+002, 4.2964285E+002
 2.0200000E+002, 8.0000022E-003, 7.4810522E+002, 4.3168161E+002
 2.0300000E+002, 8.0000022E-003, 7.4855005E+002, 4.3382083E+002
 2.0400000E+002, 8.0000022E-003, 7.4899377E+002, 4.3606973E+002
 2.0500000E+002, 8.0000022E-003, 7.4943213E+002, 4.3843530E+002
 2.0600000E+002, 8.0000022E-003, 7.4987341E+002, 4.4092850E+002
 2.0700000E+002, 8.0000022E-003, 7.5030713E+002, 4.4355710E+002
 2.0800000E+002, 8.0000022E-003, 7.5074347E+002, 4.4633109E+002
 2.0900000E+002, 8.0000022E-003, 7.5117737E+002, 4.4925760E+002
 2.1000000E+002, 8.0000022E-003, 7.5160919E+002, 4.5234286E+002
 2.1100000E+002, 8.0000022E-003, 7.5203638E+002, 4.5559015E+002
 2.1200000E+002, 8.0000022E-003, 7.5246643E+002, 4.5899765E+002
 2.1300000E+002, 8.0000032E-003, 7.5289374E+002, 4.6255612E+002
 2.1400000E+002, 8.0000032E-003, 7.5331708E+002, 4.6624646E+002
 2.1500000E+002, 8.0000032E-003, 7.5374597E+002, 4.7004010E+002
 2.1600000E+002, 8.0000032E-003, 7.5417108E+002, 4.7389557E+002
 2.1700000E+002, 8.0000032E-003, 7.5459399E+002, 4.7776422E+002
 2.1800000E+002, 8.0000032E-003, 7.5502136E+002, 4.8159479E+002
 2.1900000E+002, 8.0000032E-003, 7.5544611E+002, 4.8534552E+002
 2.2000000E+002, 8.0000032E-003, 7.5587134E+002, 4.8899045E+002
 2.2100000E+002, 8.0000032E-003, 7.5629877E+002, 4.9252496E+002
 2.2200000E+002, 8.0000032E-003, 7.5672736E+002, 4.9595724E+002
 2.2300000E+002, 8.0000032E-003, 7.5715747E+002, 4.9930206E+002
 2.2400000E+002, 8.0000032E-003, 7.5758746E+002, 5.0257071E+002
 2.2500000E+002, 8.0000032E-003, 7.5802185E+002, 5.0577255E+002
 2.2600000E+002, 8.0000032E-003, 7.5845593E+002, 5.0891397E+002
 2.2700000E+002, 8.0000032E-003, 7.5889294E+002, 5.1199976E+002
 2.2800000E+002, 8.0000032E-003, 7.5933386E+002, 5.1503381E+002
 2.2900000E+002, 8.0000032E-003, 7.5977740E+002, 5.1802051E+002
 2.3000000E+002, 8.0000032E-003, 7.6022266E+002, 5.2096198E+002
 2.3100000E+002, 8.0000032E-003, 7.6066858E+002, 5.2386066E+002
 2.3200000E+002, 8.0000032E-003, 7.6111993E+002, 5.2671906E+002
 2.3300000E+002, 8.0000032E-003, 7.6157446E+002, 5.2953918E+002
 2.3400000E+002, 8.0000032E-003, 7.6203027E+002, 5.3232245E+002
 2.3500000E+002, 8.0000032E-003, 7.6248615E+002, 5.3506989E+002
 2.3600000E+002, 8.0000032E-003, 7.6294843E+002, 5.3778381E+002
 2.3700000E+002, 8.0000032E-003, 7.6340698E+002, 5.4046527E+002
 2.3800000E+002, 8.0000032E-003, 7.6386957E+002, 5.4311536E+002
 2.3900000E+002, 8.0000032E-003, 7.6433783E+002, 5.4573456E+002
 2.4000000E+002, 8.0000032E-003, 7.6480200E+002, 5.4832452E+002
 2.4100000E+002, 8.0000032E-003, 7.6527008E+002, 5.5088568E+002
 2.4200000E+002, 8.0000032E-003, 7.6573743E+002, 5.5341901E+002
 2.4300000E+002, 8.0000032E-003, 7.6620782E+002, 5.5592578E+002
 2.4400000E+002, 8.0000032E-003, 7.6667297E+002, 5.5840564E+002
 2.4500000E+002, 8.0000032E-003, 7.6714758E+002, 5.6085986E+002
 2.4600000E+002, 8.0000032E-003, 7.6761450E+002, 5.6328894E+002
 2.4700000E+002, 8.0000032E-003, 7.6808722E+002, 5.6569360E+002
 2.4800000E+002, 8.0000032E-003, 7.6855719E+002, 5.6807446E+002
 2.4900000E+002, 8.0000032E-003, 7.6902625E+002, 5.7043182E+002
 2.5000000E+002, 8.0000032E-003, 7.6949463E+002, 5.7276624E+002
 2.5100000E+002, 8.0000032E-003, 7.6996460E+002, 5.7507819E+002
 2.5200000E+002, 8.0000032E-003, 7.7043213E+002, 5.7736798E+002
 2.5300000E+002, 8.0000032E-003, 7.7089856E+002, 5.7963617E+002
 2.5400000E+002, 8.0000032E-003, 7.7136652E+002, 5.8188336E+002
 2.5500000E+002, 8.0000032E-003, 7.7182922E+002, 5.8410956E+002
 2.5600000E+002, 8.0000032E-003, 7.7229303E+002, 5.8631531E+002
 2.5700000E+002, 8.0000032E-003, 7.7275928E+002, 5.8850092E+002
 2.5800000E+002, 8.0000032E-003, 7.7321716E+002, 5.9066650E+002
 2.5900000E+002, 8.0000032E-003, 7.7367822E+002, 5.9281287E+002
 2.6000000E+002, 8.0000032E-003, 7.7413556E+002, 5.9493994E+002
 2.6100000E+002, 8.0000032E-003, 7.7459375E+002, 5.9704822E+002
 2.6200000E+002, 8.0000032E-003, 7.7504413E+002, 5.9913757E+002
 2.6300000E+002, 8.0000032E-003, 7.7550250E+002, 6.0120844E+002
 2.6400000E+002, 8.0000032E-003, 7.7595251E+002, 6.0326129E+002
 2.6500000E+002, 8.0000032E-003, 7.7640125E+002, 6.0529626E+002
 2.6600000E+002, 8.0000032E-003, 7.7685022E+002, 6.0731354E+002
 2.6700000E+002, 8.0000032E-003, 7.7729608E+002, 6.0931329E+002
 2.6800000E+002, 8.0000032E-003, 7.7773773E+002, 6.1129584E+002
 2.6900000E+002, 8.0000032E-003, 7.7818201E+002, 6.1326141E+002
 2.7000000E+002, 8.0000032E-003, 7.7861713E+002, 6.1521021E+002
 2.7100000E+002, 8.0000032E-003, 7.7905804E+002, 6.1714252E+002
 2.7200000E+002, 8.0000032E-003, 7.7949268E+002, 6.1905841E+002
 2.7300000E+002, 8.0000032E-003, 7.7992401E+002, 6.2095807E+002
 2.7400000E+002, 8.0000032E-003, 7.8035431E+002, 6.2284137E+002
 2.7500000E+002, 8.0000032E-003, 7.8078418E+002, 6.2470911E+002
 2.7600000E+002, 8.0000032E-003, 7.8120837E+002, 6.2656104E+002
 2.7700000E+002, 8.0000032E-003, 7.8163300E+002, 6.2839728E+002
 2.7800000E+002, 8.0000032E-003, 7.8205481E+002, 6.3021838E+002
 2.7900000E+002, 8.0000032E-003, 7.8247424E+002, 6.3202405E+002
 2.8000000E+002, 8.0000032E-003, 7.8288855E+002, 6.3381470E+002
 2.8100000E+002, 8.0000032E-003, 7.8330518E+002, 6.3559027E+002
 2.8200000E+002, 8.0000032E-003, 7.8371600E+002, 6.3735126E+002
 2.8300000E+002, 8.0000032E-003, 7.8412427E+002, 6.3909760E+002
 2.8400000E+002, 8.0000032E-003, 7.8453204E+002, 6.4082922E+002
 2.8500000E+002, 8.0000032E-003, 7.8493683E+002, 6.4254669E+002
 2.8600000E+002, 8.0000032E-003, 7.8533722E+002, 6.4424982E+002
 2.8700000E+002, 8.0000032E-003, 7.8573871E+002, 6.4593872E+002
 2.8800000E+002, 8.0000032E-003, 7.8613489E+002, 6.4761371E+002
 2.8900000E+002, 8.0000032E-003, 7.8653027E+002, 6.4927484E+002
 2.9000000E+002, 8.0000032E-003, 7.8692395E+002, 6.5092236E+002
 2.9100000E+002, 8.0000032E-003, 7.8731207E+002, 6.5255621E+002
 2.9200000E+002, 8.0000032E-003, 7.8769806E+002, 6.5417664E+002
 2.9300000E+002, 8.0000032E-003, 7.8808478E+002, 6.5578357E+002
 2.9400000E+002, 8.0000032E-003, 7.8846649E+002, 6.5737708E+002
 2.9500000E+002, 8.0000032E-003, 7.8884631E+002, 6.5895758E+002
 2.9600000E+002, 8.0000032E-003, 7.8922449E+002, 6.6052502E+002
 2.9700000E+002, 8.0000032E-003, 7.8959924E+002, 6.6207965E+002
 2.9800000E+002, 8.0000032E-003, 7.8997076E+002, 6.6362140E+002
 2.9900000E+002, 8.0000032E-003, 7.9034180E+002, 6.6515051E+002
 3.0000000E+002, 8.0000032E-003, 7.9070868E+002, 6.6666687E+002
 3.0100000E+002, 8.0000032E-003, 7.9107404E+002, 6.6817084E+002
 3.0200000E+002, 8.0000032E-003, 7.9143726E+002, 6.6966248E+002
 3.0300000E+002, 8.0000032E-003, 7.9179706E+002, 6.7114160E+002
 3.0400000E+002, 8.0000032E-003, 7.9215509E+002, 6.7260858E+002
 3.0500000E+002, 8.0000032E-003, 7.9250983E+002, 6.7406348E+002
 3.0600000E+002, 8.0000032E-003, 7.9286389E+002, 6.7550629E+002
 3.0700000E+002, 8.0000032E-003, 7.9321240E+002, 6.7693738E+002
 3.0800000E+002, 8.0000032E-003, 7.9356207E+002, 6.7835638E+002
 3.0900000E+002, 8.0000032E-003, 7.9390674E+002, 6.7976385E+002
 3.1000000E+002, 8.0000032E-003, 7.9425079E+002, 6.8115961E+002
 3.1100000E+002, 8.0000032E-003, 7.9459229E+002, 6.8254395E+002
 3.1200000E+002, 8.0000032E-003, 7.9493085E+002, 6.8391675E+002
 3.1300000E+002, 8.0000032E-003, 7.9526678E+002, 6.8527838E+002
 3.1400000E+002, 8.0000032E-003, 7.9560284E+002, 6.8662860E+002
 3.1500000E+002, 8.0000032E-003, 7.9593201E+002, 6.8796759E+002
 3.1600000E+002, 8.0000032E-003, 7.9626221E+002, 6.8929565E+002
 3.1700000E+002, 8.0000032E-003, 7.9658868E+002, 6.9061267E+002
 3.1800000E+002, 8.0000032E-003, 7.9691345E+002, 6.9191882E+002
 3.1900000E+002, 8.0000032E-003, 7.9723529E+002, 6.9321423E+002
 3.2000000E+002, 8.0000032E-003, 7.9755762E+002, 6.9449878E+002
 3.2100000E+002, 8.0000032E-003, 7.9787268E+002, 6.9577277E+002
 3.2200000E+002, 8.0000032E-003, 7.9818921E+002, 6.9703613E+002
 3.2300000E+002, 8.0000032E-003, 7.9850214E+002, 6.9828900E+002
 3.2400000E+002, 8.0000032E-003, 7.9881299E+002, 6.9953143E+002
 3.2500000E+002, 8.0000032E-003, 7.9912238E+002, 7.0076367E+002
 3.2600000E+002, 8.0000032E-003, 7.9942792E+002, 7.0198553E+002
 3.2700000E+002, 8.0000032E-003, 7.9973260E+002, 7.0319727E+002
 3.2800000E+002, 8.0000032E-003, 8.0003387E+002, 7.0439893E+002
 3.2900000E+002, 8.0000032E-003, 8.0033569E+002, 7.0559064E+002
 3.3000000E+002, 8.0000032E-003, 8.0063080E+002, 7.0677240E+002
 3.3100000E+002, 8.0000032E-003, 8.0092664E+002, 7.0794427E+002
 3.3200000E+002, 8.0000032E-003, 8.0122046E+002, 7.0910638E+002
 3.3300000E+002, 8.0000032E-003, 8.0151270E+002, 7.1025885E+002
 3.3400000E+002, 8.0000032E-003, 8.0179901E+002, 7.1140167E+002
 3.3500000E+002, 8.0000032E-003, 8.0208783E+002, 7.1253491E+002
 3.3600000E+002, 8.0000032E-003, 8.0237122E+002, 7.1365881E+002
 3.3700000E+002, 8.0000032E-003, 8.0265558E+002, 7.1477338E+002
 3.3800000E+002, 8.0000032E-003, 8.0293414E+002, 7.1587842E+002
 3.3900000E+002, 8.0000032E-003, 8.0321381E+002, 7.1697430E+002
 3.4000000E+002, 8.0000032E-003, 8.0349066E+002, 7.1806110E+002
 3.4100000E+002, 8.0000032E-003, 8.0376404E+002, 7.1913879E+002
 3.4200000E+002, 8.0000032E-003, 8.0403638E+002, 7.2020734E+002
 3.4300000E+002, 8.0000032E-003, 8.0430719E+002, 7.2126703E+002
 3.4400000E+002, 8.0000032E-003, 8.0457397E+002, 7.2231781E+002
 3.4500000E+002, 8.0000032E-003, 8.0484076E+002, 7.2335974E+002
 3.4600000E+002, 8.0000032E-003, 8.0510583E+002, 7.2439307E+002
 3.4700000E+002, 8.0000032E-003, 8.0536664E+002, 7.2541760E+002
 3.4800000E+002, 8.0000032E-003, 8.0562677E+002, 7.2643359E+002
 3.4900000E+002, 8.0000032E-003, 8.0588519E+002, 7.2744104E+002
 3.5000000E+002, 8.0000032E-003, 8.0614044E+002, 7.2844000E+002
 3.5100000E+002, 8.0000032E-003, 8.0639612E+002, 7.2943054E+002
 3.5200000E+002, 8.0000032E-003, 8.0664856E+002, 7.3041284E+002
 3.5300000E+002, 8.0000032E-003, 8.0689850E+002, 7.3138678E+002
 3.5400000E+002, 8.0000032E-003, 8.0714709E+002, 7.3235260E+002
 3.5500000E+002, 8.0000032E-003, 8.0739417E+002, 7.3331024E+002
 3.5600000E+002, 8.0000032E-003, 8.0763855E+002, 7.3425989E+002
 3.5700000E+002, 8.0000032E-003, 8.0788226E+002, 7.3520135E+002
 3.5800000E+002, 8.0000032E-003, 8.0812061E+002, 7.3613489E+002
 3.5900000E+002, 8.0000032E-003, 8.0836151E+002, 7.3706073E+002
 3.6000000E+002, 8.0000032E-003, 8.0859918E+002, 7.3797858E+002
 3.6100000E+002, 8.0000032E-003, 8.0883325E+002, 7.3888873E+002
 3.6200000E+002, 8.0000032E-003, 8.0906866E+002, 7.3979114E+002
 3.6300000E+002, 8.0000032E-003, 8.0929865E+002, 7.4068597E+002
 3.6400000E+002, 8.0000032E-003, 8.0952930E+002, 7.4157318E+002
 3.6500000E+002, 8.0000032E-003, 8.0975812E+002, 7.4245288E+002
 3.6600000E+002, 8.0000032E-003, 8.0998273E+002, 7.4332513E+002
 3.6700000E+002, 8.0000032E-003, 8.1020953E+002, 7.4419006E+002
 3.6800000E+002, 8.0000032E-003, 8.1043079E+002, 7.4504767E+002
 3.6900000E+002, 8.0000032E-003, 8.1065344E+002, 7.4589795E+002
 3.7000000E+002, 8.0000032E-003, 8.1087085E+002, 7.4674097E+002
 3.7100000E+002, 8.0000032E-003, 8.1109021E+002, 7.4757690E+002
 3.7200000E+002, 8.0000032E-003, 8.1130591E+002, 7.4840570E+002
 3.7300000E+002, 8.0000032E-003, 8.1152008E+002, 7.4922754E+002
 3.7400000E+002, 8.0000032E-003, 8.1173395E+002, 7.5004236E+002
 3.7500000E+002, 8.0000032E-003, 8.1194293E+002, 7.5085028E+002
 3.7600000E+002, 8.0000032E-003, 8.1215417E+002, 7.5165125E+002
 3.7700000E+002, 8.0000032E-003, 8.1235980E+002, 7.5244543E+002
 3.7800000E+002, 8.0000032E-003, 8.1256769E+002, 7.5323285E+002
 3.7900000E+002, 8.0000032E-003, 8.1276959E+002, 7.5401355E+002
 3.8000000E+002, 8.0000032E-003, 8.1297485E+002, 7.5478760E+002
 3.8100000E+002, 8.0000032E-003, 8.1317377E+002, 7.5555505E+002
 3.8200000E+002, 8.0000032E-003, 8.1337567E+002, 7.5631598E+002
 3.8300000E+002, 8.0000032E-003, 8.1357098E+002, 7.5707050E+002
 3.8400000E+002, 8.0000032E-003, 8.1377051E+002, 7.5781854E+002
 3.8500000E+002, 8.0000032E-003, 8.1396191E+002, 7.5856012E+002
 3.8600000E+002, 8.0000032E-003, 8.1415887E+002, 7.5929523E+002
 3.8700000E+002, 8.0000032E-003, 8.1434680E+002, 7.6002429E+002
 3.8800000E+002, 8.0000032E-003, 8.1453998E+002, 7.6074707E+002
 3.8900000E+002, 8.0000032E-003, 8.1472656E+002, 7.6146362E+002
 3.9000000E+002, 8.0000032E-003, 8.1491589E+002, 7.6217407E+002
 3.9100000E+002, 8.0000032E-003, 8.1509906E+002, 7.6287836E+002
 3.9200000E+002, 8.0000032E-003, 8.1528619E+002, 7.6357678E+002
 3.9300000E+002, 8.0000032E-003, 8.1546539E+002, 7.6426917E+002
 3.9400000E+002, 8.0000032E-003, 8.1564996E+002, 7.6495557E+002
 3.9500000E+002, 8.0000032E-003, 8.1582666E+002, 7.6563605E+002
 3.9600000E+002, 8.0000032E-003, 8.1600818E+002, 7.6631085E+002
 3.9700000E+002, 8.0000032E-003, 8.1618213E+002, 7.6697974E+002
 3.9800000E+002, 8.0000032E-003, 8.1635931E+002, 7.6764288E+002
 3.9900000E+002, 8.0000032E-003, 8.1653241E+002, 7.6830042E+002
 4.0000000E+002, 8.0000032E-003, 8.1670496E+002, 7.6895221E+002
 4.0100000E+002, 8.0000032E-003, 8.1687726E+002, 7.6959845E+002
 4.0200000E+002, 8.0000032E-003, 8.1704608E+002, 7.7023914E+002
 4.0300000E+002, 8.0000032E-003, 8.1721576E+002, 7.7087427E+002
 4.0400000E+002, 8.0000032E-003, 8.1738232E+002, 7.7150403E+002
 4.0500000E+002, 8.0000032E-003, 8.1754712E+002, 7.7212836E+002
 4.0600000E+002, 8.0000032E-003, 8.1771216E+002, 7.7274725E+002
 4.0700000E+002, 8.0000032E-003, 8.1787415E+002, 7.7336084E+002
 4.0800000E+002, 8.0000032E-003, 8.1803729E+002, 7.7396912E+002
 4.0900000E+002, 8.0000032E-003, 8.1819598E+002, 7.7457227E+002
 4.1000000E+002, 8.0000032E-003, 8.1835791E+002, 7.7517010E+002
 4.1100000E+002, 8.0000032E-003, 8.1851361E+002, 7.7576288E+002
 4.1200000E+002, 8.0000032E-003, 8.1867041E+002, 7.7635040E+002
 4.1300000E+002, 8.0000032E-003, 8.1882642E+002, 7.7693298E+002
 4.1400000E+002, 8.0000032E-003, 8.1897974E+002, 7.7751044E+002
 4.1500000E+002, 8.0000032E-003, 8.1913110E+002, 7.7808301E+002
 4.1600000E+002, 8.0000032E-003, 8.1928473E+002, 7.7865051E+002
 4.1700000E+002, 8.0000032E-003, 8.1943268E+002, 7.7921326E+002
 4.1800000E+002, 8.0000032E-003, 8.1958411E+002, 7.7977106E+002
 4.1900000E+002, 8.0000032E-003, 8.1973010E+002, 7.8032404E+002
 4.2000000E+002, 8.0000032E-003, 8.1987708E+002, 7.8087238E+002
 4.2100000E+002, 8.0000032E-003, 8.2002234E+002, 7.8141577E+002
 4.2200000E+002, 8.0000032E-003, 8.2016681E+002, 7.8195453E+002
 4.2300000E+002, 8.0000032E-003, 8.2030811E+002, 7.8248871E+002
 4.2400000E+002, 8.0000032E-003, 8.2045178E+002, 7.8301813E+002
 4.2500000E+002, 8.0000032E-003, 8.2059094E+002, 7.8354303E+002
 4.2600000E+002, 8.0000032E-003, 8.2073218E+002, 7.8406348E+002
 4.2700000E+002, 8.0000032E-003, 8.2086884E+002, 7.8457928E+002
 4.2800000E+002, 8.0000032E-003, 8.2100629E+002, 7.8509064E+002
 4.2900000E+002, 8.0000032E-003, 8.2114301E+002, 7.8559760E+002
 4.3000000E+002, 8.0000032E-003, 8.2127692E+002, 7.8610016E+002
 4.3100000E+002, 8.0000032E-003, 8.2141040E+002, 7.8659833E+002
 4.3200000E+002, 8.0000032E-003, 8.2154456E+002, 7.8709216E+002
 4.3300000E+002, 8.0000032E-003, 8.2167432E+002, 7.8758173E+002
 4.3400000E+002, 8.0000032E-003, 8.2180530E+002, 7.8806714E+002
 4.3500000E+002, 8.0000032E-003, 8.2193488E+002, 7.8854822E+002
 4.3600000E+002, 8.0000032E-003, 8.2206281E+002, 7.8902515E+002
 4.3700000E+002, 8.0000032E-003, 8.2218951E+002, 7.8949792E+002
 4.3800000E+002, 8.0000032E-003, 8.2231671E+002, 7.8996661E+002
 4.3900000E+002, 8.0000032E-003, 8.2244073E+002, 7.9043127E+002
 4.4000000E+002, 8.0000032E-003, 8.2256470E+002, 7.9089185E+002
 4.4100000E+002, 8.0000032E-003, 8.2268866E+002, 7.9134845E+002
 4.4200000E+002, 8.0000032E-003, 8.2280994E+002, 7.9180103E+002
 4.4300000E+002, 8.0000032E-003, 8.2293079E+002, 7.9224963E+002
 4.4400000E+002, 8.0000032E-003, 8.2305005E+002, 7.9269434E+002
 4.4500000E+002, 8.0000032E-003, 8.2317041E+002, 7.9313519E+002
 4.4600000E+002, 8.0000032E-003, 8.2328717E+002, 7.9357220E+002
 4.4700000E+002, 8.0000032E-003, 8.2340417E+002, 7.9400543E+002
 4.4800000E+002, 8.0000032E-003, 8.2352100E+002, 7.9443488E+002
 4.4900000E+002, 8.0000032E-003, 8.2363538E+002, 7.9486060E+002
 4.5000000E+002, 8.0000032E-003, 8.2374884E+002, 7.9528253E+002
 4.5100000E+002, 8.0000032E-003, 8.2386298E+002, 7.9570087E+002
 4.5200000E+002, 8.0000032E-003, 8.2397443E+002, 7.9611554E+002
 4.5300000E+002, 8.0000032E-003, 8.2408569E+002, 7.9652655E+002
 4.5400000E+002, 8.0000032E-003, 8.2419446E+002, 7.9693402E+002
 4.5500000E+002, 8.0000032E-003, 8.2430597E+002, 7.9733795E+002
 4.5600000E+002, 8.0000032E-003, 8.2441302E+002, 7.9773834E+002
 4.5700000E+002, 8.0000032E-003, 8.2452020E+002, 7.9813519E+002
 4.5800000E+002, 8.0000032E-003, 8.2462811E+002, 7.9852863E+002
 4.5900000E+002, 8.0000032E-003, 8.2473309E+002, 7.9891864E+002
 4.6000000E+002, 8.0000032E-003, 8.2483728E+002, 7.9930518E+002
 4.6100000E+002, 8.0000032E-003, 8.2494104E+002, 7.9968842E+002
 4.6200000E+002, 8.0000032E-003, 8.2504529E+002, 8.0006824E+002
 4.6300000E+002, 8.0000032E-003, 8.2514618E+002, 8.0044476E+002
 4.6400000E+002, 8.0000032E-003, 8.2524811E+002, 8.0081799E+002
 4.6500000E+002, 8.0000032E-003, 8.2534735E+002, 8.0118793E+002
 4.6600000E+002, 8.0000032E-003, 8.2544861E+002, 8.0155463E+002