# Time [s], Temperature [C]
1.000000000000000000e+00,2.499997099999999861e+01
2.000000000000000000e+00,3.356563200000000080e+01
3.000000000000000000e+00,3.836486800000000130e+01
4.000000000000000000e+00,4.228127700000000289e+01
5.000000000000000000e+00,4.555322300000000268e+01
6.000000000000000000e+00,4.843336099999999789e+01
7.000000000000000000e+00,5.101853899999999697e+01
8.000000000000000000e+00,5.338043600000000311e+01
9.000000000000000000e+00,5.556284699999999788e+01
1.000000000000000000e+01,5.759799600000000197e+01
1.100000000000000000e+01,5.950925800000000265e+01
1.200000000000000000e+01,6.131437300000000334e+01
1.300000000000000000e+01,6.302744700000000222e+01
1.400000000000000000e+01,6.465949200000000019e+01
1.500000000000000000e+01,6.621948999999999330e+01
1.600000000000000000e+01,6.771515700000000493e+01
1.700000000000000000e+01,6.915274800000000255e+01
1.800000000000000000e+01,7.053739199999999698e+01
1.900000000000000000e+01,7.187378699999999299e+01
2.000000000000000000e+01,7.316601599999999905e+01
2.100000000000000000e+01,7.441735099999999647e+01
2.200000000000000000e+01,7.563079100000000210e+01
2.300000000000000000e+01,7.680922700000000702e+01
2.400000000000000000e+01,7.795475000000000421e+01
2.500000000000000000e+01,7.906955700000000320e+01
2.600000000000000000e+01,8.015570800000000418e+01
2.700000000000000000e+01,8.121464500000000442e+01
2.800000000000000000e+01,8.224806999999999846e+01
2.900000000000000000e+01,8.325754499999999325e+01
3.000000000000000000e+01,8.424410199999999804e+01
3.100000000000000000e+01,8.520894599999999741e+01
3.200000000000000000e+01,8.615334300000000667e+01
3.300000000000000000e+01,8.707804099999999892e+01
3.400000000000000000e+01,8.798414599999999552e+01
3.500000000000000000e+01,8.887250500000000386e+01
3.600000000000000000e+01,8.974371299999999962e+01
3.700000000000000000e+01,9.059867900000000418e+01
3.800000000000000000e+01,9.143815600000000643e+01
3.900000000000000000e+01,9.226250500000000443e+01
4.000000000000000000e+01,9.307246399999999653e+01
4.100000000000000000e+01,9.386870600000000309e+01
4.200000000000000000e+01,9.465158800000000383e+01
4.300000000000000000e+01,9.542163100000000497e+01
4.400000000000000000e+01,9.617941999999999325e+01
4.500000000000000000e+01,9.692524000000000228e+01
4.600000000000000000e+01,9.765953100000000120e+01
4.700000000000000000e+01,9.838280500000000472e+01
4.800000000000000000e+01,9.909536699999999598e+01
4.900000000000000000e+01,9.979750799999999344e+01
5.000000000000000000e+01,1.004896399999999943e+02
5.100000000000000000e+01,1.011719599999999986e+02
5.200000000000000000e+01,1.018448199999999986e+02
5.300000000000000000e+01,1.025087699999999984e+02
5.400000000000000000e+01,1.031636799999999994e+02
5.500000000000000000e+01,1.038099399999999974e+02
5.600000000000000000e+01,1.044480700000000013e+02
5.700000000000000000e+01,1.050779100000000028e+02
5.800000000000000000e+01,1.056998700000000042e+02
5.900000000000000000e+01,1.063142799999999966e+02
6.000000000000000000e+01,1.069211300000000051e+02
6.100000000000000000e+01,1.075208200000000005e+02
6.200000000000000000e+01,1.081134200000000050e+02
6.300000000000000000e+01,1.086992000000000047e+02
6.400000000000000000e+01,1.092781800000000061e+02
6.500000000000000000e+01,1.098508499999999941e+02
6.600000000000000000e+01,1.104170199999999937e+02
6.700000000000000000e+01,1.109770999999999930e+02
6.800000000000000000e+01,1.115311999999999983e+02
6.900000000000000000e+01,1.120793800000000005e+02
7.000000000000000000e+01,1.126218199999999996e+02
7.100000000000000000e+01,1.131587399999999946e+02
7.200000000000000000e+01,1.136902400000000029e+02
7.300000000000000000e+01,1.142163500000000056e+02
7.400000000000000000e+01,1.147373400000000032e+02
7.500000000000000000e+01,1.152532199999999989e+02
7.600000000000000000e+01,1.157642100000000056e+02
7.700000000000000000e+01,1.162704499999999967e+02
7.800000000000000000e+01,1.167719000000000023e+02
7.900000000000000000e+01,1.172687499999999972e+02
8.000000000000000000e+01,1.177612100000000055e+02
8.100000000000000000e+01,1.182492400000000004e+02
8.200000000000000000e+01,1.187328799999999944e+02
8.300000000000000000e+01,1.192125099999999946e+02
8.400000000000000000e+01,1.196879899999999992e+02
8.500000000000000000e+01,1.201594500000000068e+02
8.600000000000000000e+01,1.206269700000000000e+02
8.700000000000000000e+01,1.210907299999999935e+02
8.800000000000000000e+01,1.215507300000000015e+02
8.900000000000000000e+01,1.220071400000000068e+02
9.000000000000000000e+01,1.224599500000000063e+02
9.100000000000000000e+01,1.229091899999999953e+02
9.200000000000000000e+01,1.233550999999999931e+02
9.300000000000000000e+01,1.237975799999999964e+02
9.400000000000000000e+01,1.242368199999999945e+02
9.500000000000000000e+01,1.246729299999999938e+02
9.600000000000000000e+01,1.251058699999999959e+02
9.700000000000000000e+01,1.255357199999999978e+02
9.800000000000000000e+01,1.259626499999999965e+02
9.900000000000000000e+01,1.263865100000000012e+02
1.000000000000000000e+02,1.268075000000000045e+02
1.010000000000000000e+02,1.272257599999999940e+02
1.020000000000000000e+02,1.276412100000000009e+02
1.030000000000000000e+02,1.280539599999999893e+02
1.040000000000000000e+02,1.284641100000000051e+02
1.050000000000000000e+02,1.288716300000000103e+02
1.060000000000000000e+02,1.292765799999999956e+02
1.070000000000000000e+02,1.296790499999999895e+02
1.080000000000000000e+02,1.300790900000000079e+02
1.090000000000000000e+02,1.304767300000000034e+02
1.100000000000000000e+02,1.308720700000000079e+02
1.110000000000000000e+02,1.312650600000000054e+02
1.120000000000000000e+02,1.316557500000000118e+02
1.130000000000000000e+02,1.320443099999999959e+02
1.140000000000000000e+02,1.324306500000000142e+02
1.150000000000000000e+02,1.328149099999999976e+02
1.160000000000000000e+02,1.331971000000000060e+02
1.170000000000000000e+02,1.335771900000000016e+02
1.180000000000000000e+02,1.339552799999999877e+02
1.190000000000000000e+02,1.343314399999999864e+02
1.200000000000000000e+02,1.347056300000000135e+02
1.210000000000000000e+02,1.350779100000000028e+02
1.220000000000000000e+02,1.354483600000000081e+02
1.230000000000000000e+02,1.358169699999999978e+02
1.240000000000000000e+02,1.361837500000000034e+02
1.250000000000000000e+02,1.365488300000000095e+02
1.260000000000000000e+02,1.369121399999999937e+02
1.270000000000000000e+02,1.372737400000000036e+02
1.280000000000000000e+02,1.376337100000000078e+02
1.290000000000000000e+02,1.379920199999999966e+02
1.300000000000000000e+02,1.383486800000000017e+02
1.310000000000000000e+02,1.387038699999999949e+02
1.320000000000000000e+02,1.390574300000000108e+02
1.330000000000000000e+02,1.394094399999999894e+02
1.340000000000000000e+02,1.397599800000000130e+02
1.350000000000000000e+02,1.401090499999999963e+02
1.360000000000000000e+02,1.404566199999999867e+02
1.370000000000000000e+02,1.408027800000000127e+02
1.380000000000000000e+02,1.411474900000000048e+02
1.390000000000000000e+02,1.414908599999999979e+02
1.400000000000000000e+02,1.418328600000000108e+02
1.410000000000000000e+02,1.421734800000000121e+02
1.420000000000000000e+02,1.425127699999999891e+02
1.430000000000000000e+02,1.428508300000000020e+02
1.440000000000000000e+02,1.431876100000000065e+02
1.450000000000000000e+02,1.435230999999999995e+02
1.460000000000000000e+02,1.438574399999999969e+02
1.470000000000000000e+02,1.441904600000000016e+02
1.480000000000000000e+02,1.445222500000000139e+02
1.490000000000000000e+02,1.448529100000000085e+02
1.500000000000000000e+02,1.451823400000000106e+02
1.510000000000000000e+02,1.455106000000000108e+02
1.520000000000000000e+02,1.458378899999999874e+02
1.530000000000000000e+02,1.461639399999999966e+02
1.540000000000000000e+02,1.464888799999999947e+02
1.550000000000000000e+02,1.468128100000000131e+02
1.560000000000000000e+02,1.471356000000000108e+02
1.570000000000000000e+02,1.474573100000000068e+02
1.580000000000000000e+02,1.477781200000000013e+02
1.590000000000000000e+02,1.480977900000000034e+02
1.600000000000000000e+02,1.484164100000000133e+02
1.610000000000000000e+02,1.487340900000000090e+02
1.620000000000000000e+02,1.490507399999999905e+02
1.630000000000000000e+02,1.493664400000000114e+02
1.640000000000000000e+02,1.496812400000000025e+02
1.650000000000000000e+02,1.499950100000000077e+02
1.660000000000000000e+02,1.503078199999999924e+02
1.670000000000000000e+02,1.506197099999999978e+02
1.680000000000000000e+02,1.509307100000000048e+02
1.690000000000000000e+02,1.512407399999999882e+02
1.700000000000000000e+02,1.515499900000000082e+02
1.710000000000000000e+02,1.518582800000000077e+02
1.720000000000000000e+02,1.521657099999999900e+02
1.730000000000000000e+02,1.524722700000000088e+02
1.740000000000000000e+02,1.527779700000000105e+02
1.750000000000000000e+02,1.530828400000000045e+02
1.760000000000000000e+02,1.533868899999999940e+02
1.770000000000000000e+02,1.536900799999999947e+02
1.780000000000000000e+02,1.539924000000000035e+02
1.790000000000000000e+02,1.542939599999999984e+02
1.800000000000000000e+02,1.545947400000000016e+02
1.810000000000000000e+02,1.548947300000000098e+02
1.820000000000000000e+02,1.551939099999999883e+02
1.830000000000000000e+02,1.554922599999999875e+02
1.840000000000000000e+02,1.557898900000000140e+02
1.850000000000000000e+02,1.560868199999999888e+02
1.860000000000000000e+02,1.563829200000000128e+02
1.870000000000000000e+02,1.566782200000000103e+02
1.880000000000000000e+02,1.569728399999999908e+02
1.890000000000000000e+02,1.572667800000000113e+02
1.900000000000000000e+02,1.575599100000000021e+02
1.910000000000000000e+02,1.578523700000000076e+02
1.920000000000000000e+02,1.581440399999999897e+02
1.930000000000000000e+02,1.584350900000000024e+02
1.940000000000000000e+02,1.587254000000000076e+02
1.950000000000000000e+02,1.590149800000000084e+02
1.960000000000000000e+02,1.593038599999999860e+02
1.970000000000000000e+02,1.595921800000000133e+02
1.980000000000000000e+02,1.598796800000000076e+02
1.990000000000000000e+02,1.601665199999999913e+02
2.000000000000000000e+02,1.604527699999999868e+02
2.010000000000000000e+02,1.607383299999999906e+02
2.020000000000000000e+02,1.610231799999999964e+02
2.030000000000000000e+02,1.613074000000000012e+02
2.040000000000000000e+02,1.615909900000000050e+02
2.050000000000000000e+02,1.618739300000000014e+02
2.060000000000000000e+02,1.621562299999999937e+02
2.070000000000000000e+02,1.624378800000000069e+02
2.080000000000000000e+02,1.627188400000000001e+02
2.090000000000000000e+02,1.629993000000000052e+02
2.100000000000000000e+02,1.632790500000000122e+02
2.110000000000000000e+02,1.635581999999999994e+02
2.120000000000000000e+02,1.638367200000000139e+02
2.130000000000000000e+02,1.641146500000000117e+02
2.140000000000000000e+02,1.643919699999999864e+02
2.150000000000000000e+02,1.646686899999999980e+02
2.160000000000000000e+02,1.649448199999999929e+02
2.170000000000000000e+02,1.652203499999999963e+02
2.180000000000000000e+02,1.654952900000000113e+02
2.190000000000000000e+02,1.657695899999999938e+02
2.200000000000000000e+02,1.660433500000000038e+02
2.210000000000000000e+02,1.663165899999999908e+02
2.220000000000000000e+02,1.665891399999999862e+02
2.230000000000000000e+02,1.668611500000000092e+02
2.240000000000000000e+02,1.671326400000000092e+02
2.250000000000000000e+02,1.674034900000000050e+02
2.260000000000000000e+02,1.676737500000000125e+02
2.270000000000000000e+02,1.679435900000000004e+02
2.280000000000000000e+02,1.682127499999999998e+02
2.290000000000000000e+02,1.684813200000000109e+02
2.300000000000000000e+02,1.687494700000000023e+02
2.310000000000000000e+02,1.690169699999999864e+02
2.320000000000000000e+02,1.692839099999999917e+02
2.330000000000000000e+02,1.695503500000000088e+02
2.340000000000000000e+02,1.698162399999999934e+02
2.350000000000000000e+02,1.700815399999999897e+02
2.360000000000000000e+02,1.703463900000000137e+02
2.370000000000000000e+02,1.706106599999999958e+02
2.380000000000000000e+02,1.708743599999999958e+02
2.390000000000000000e+02,1.711375999999999920e+02
2.400000000000000000e+02,1.714002700000000061e+02
2.410000000000000000e+02,1.716623700000000099e+02
2.420000000000000000e+02,1.719240100000000098e+02
2.430000000000000000e+02,1.721851000000000056e+02
2.440000000000000000e+02,1.724456299999999942e+02
2.450000000000000000e+02,1.727057299999999884e+02
2.460000000000000000e+02,1.729652700000000038e+02
2.470000000000000000e+02,1.732242599999999868e+02
2.480000000000000000e+02,1.734827899999999943e+02
2.490000000000000000e+02,1.737407399999999882e+02
2.500000000000000000e+02,1.739982300000000066e+02
2.510000000000000000e+02,1.742552499999999895e+02
2.520000000000000000e+02,1.745116899999999873e+02
2.530000000000000000e+02,1.747676500000000033e+02
2.540000000000000000e+02,1.750231599999999901e+02
2.550000000000000000e+02,1.752781099999999981e+02
2.560000000000000000e+02,1.755325799999999958e+02
2.570000000000000000e+02,1.757865799999999865e+02
2.580000000000000000e+02,1.760400099999999952e+02
2.590000000000000000e+02,1.762930299999999875e+02
2.600000000000000000e+02,1.765455300000000136e+02
2.610000000000000000e+02,1.767974900000000105e+02
2.620000000000000000e+02,1.770490399999999909e+02
2.630000000000000000e+02,1.773000800000000083e+02
2.640000000000000000e+02,1.775506300000000124e+02
2.650000000000000000e+02,1.778006900000000030e+02
2.660000000000000000e+02,1.780502799999999866e+02
2.670000000000000000e+02,1.782993800000000135e+02
2.680000000000000000e+02,1.785480000000000018e+02
2.690000000000000000e+02,1.787961400000000083e+02
2.700000000000000000e+02,1.790438399999999888e+02
2.710000000000000000e+02,1.792909899999999936e+02
2.720000000000000000e+02,1.795377000000000010e+02
2.730000000000000000e+02,1.797839800000000139e+02
2.740000000000000000e+02,1.800296899999999880e+02
2.750000000000000000e+02,1.802750100000000089e+02
2.760000000000000000e+02,1.805198800000000006e+02
2.770000000000000000e+02,1.807642099999999914e+02
2.780000000000000000e+02,1.810081500000000005e+02
2.790000000000000000e+02,1.812515899999999931e+02
2.800000000000000000e+02,1.814945199999999943e+02
2.810000000000000000e+02,1.817371200000000044e+02
2.820000000000000000e+02,1.819791400000000010e+02
2.830000000000000000e+02,1.822207200000000000e+02
2.840000000000000000e+02,1.824619000000000142e+02
2.850000000000000000e+02,1.827025500000000022e+02
2.860000000000000000e+02,1.829427499999999895e+02
2.870000000000000000e+02,1.831825599999999952e+02
2.880000000000000000e+02,1.834218600000000094e+02
2.890000000000000000e+02,1.836606600000000071e+02
2.900000000000000000e+02,1.838991200000000106e+02
2.910000000000000000e+02,1.841370699999999943e+02
2.920000000000000000e+02,1.843745700000000056e+02
2.930000000000000000e+02,1.846116900000000101e+02
2.940000000000000000e+02,1.848482700000000136e+02
2.950000000000000000e+02,1.850844400000000007e+02
2.960000000000000000e+02,1.853202100000000030e+02
2.970000000000000000e+02,1.855554400000000044e+02
2.980000000000000000e+02,1.857903000000000020e+02
2.990000000000000000e+02,1.860246899999999926e+02
3.000000000000000000e+02,1.862586499999999887e+02
3.010000000000000000e+02,1.864921600000000126e+02
3.020000000000000000e+02,1.867252200000000073e+02
3.030000000000000000e+02,1.869578899999999919e+02
3.040000000000000000e+02,1.871900300000000072e+02
3.050000000000000000e+02,1.874218400000000031e+02
3.060000000000000000e+02,1.876531799999999919e+02
3.070000000000000000e+02,1.878840199999999925e+02
3.080000000000000000e+02,1.881145500000000084e+02
3.090000000000000000e+02,1.883445399999999950e+02
3.100000000000000000e+02,1.885741399999999999e+02
3.110000000000000000e+02,1.888033399999999915e+02
3.120000000000000000e+02,1.890320399999999950e+02
3.130000000000000000e+02,1.892603799999999978e+02
3.140000000000000000e+02,1.894882499999999936e+02
3.150000000000000000e+02,1.897157400000000109e+02
3.160000000000000000e+02,1.899427300000000116e+02
3.170000000000000000e+02,1.901693400000000054e+02
3.180000000000000000e+02,1.903955400000000111e+02
3.190000000000000000e+02,1.906212500000000034e+02
3.200000000000000000e+02,1.908466600000000142e+02
3.210000000000000000e+02,1.910715500000000020e+02
3.220000000000000000e+02,1.912960400000000050e+02
3.230000000000000000e+02,1.915201399999999978e+02
3.240000000000000000e+02,1.917437700000000120e+02
3.250000000000000000e+02,1.919670600000000036e+02
3.260000000000000000e+02,1.921898799999999881e+02
3.270000000000000000e+02,1.924122900000000129e+02
3.280000000000000000e+02,1.926342500000000086e+02
3.290000000000000000e+02,1.928558700000000101e+02
3.300000000000000000e+02,1.930770400000000109e+02
3.310000000000000000e+02,1.932977799999999888e+02
3.320000000000000000e+02,1.935181399999999883e+02
3.330000000000000000e+02,1.937380400000000122e+02
3.340000000000000000e+02,1.939575299999999913e+02
3.350000000000000000e+02,1.941766800000000046e+02
3.360000000000000000e+02,1.943953700000000140e+02
3.370000000000000000e+02,1.946136500000000069e+02
3.380000000000000000e+02,1.948315900000000056e+02
3.390000000000000000e+02,1.950490700000000004e+02
3.400000000000000000e+02,1.952661400000000071e+02
3.410000000000000000e+02,1.954827999999999975e+02
3.420000000000000000e+02,1.956990800000000092e+02
3.430000000000000000e+02,1.959149299999999982e+02
3.440000000000000000e+02,1.961304299999999898e+02
3.450000000000000000e+02,1.963454900000000123e+02
3.460000000000000000e+02,1.965601299999999867e+02
3.470000000000000000e+02,1.967744299999999953e+02
3.480000000000000000e+02,1.969882399999999905e+02
3.490000000000000000e+02,1.972017099999999914e+02
3.500000000000000000e+02,1.974147800000000075e+02
3.510000000000000000e+02,1.976274899999999946e+02
3.520000000000000000e+02,1.978397099999999966e+02
3.530000000000000000e+02,1.980516700000000014e+02
3.540000000000000000e+02,1.982631100000000117e+02
3.550000000000000000e+02,1.984741799999999898e+02
3.560000000000000000e+02,1.986849200000000053e+02
3.570000000000000000e+02,1.988951900000000137e+02
3.580000000000000000e+02,1.991051199999999994e+02
3.590000000000000000e+02,1.993146399999999971e+02
3.600000000000000000e+02,1.995237899999999911e+02
3.610000000000000000e+02,1.997324800000000096e+02
3.620000000000000000e+02,1.999408899999999960e+02
3.630000000000000000e+02,2.001487999999999943e+02
3.640000000000000000e+02,2.003564000000000078e+02
3.650000000000000000e+02,2.005635800000000017e+02
3.660000000000000000e+02,2.007704300000000046e+02
3.670000000000000000e+02,2.009767899999999941e+02
3.680000000000000000e+02,2.011828600000000051e+02
3.690000000000000000e+02,2.013884899999999902e+02
3.700000000000000000e+02,2.015937299999999937e+02
3.710000000000000000e+02,2.017986500000000092e+02
3.720000000000000000e+02,2.020031400000000019e+02
3.730000000000000000e+02,2.022072400000000130e+02
3.740000000000000000e+02,2.024110300000000109e+02
3.750000000000000000e+02,2.026143800000000113e+02
3.760000000000000000e+02,2.028173500000000047e+02
3.770000000000000000e+02,2.030199700000000007e+02
3.780000000000000000e+02,2.032221499999999992e+02
3.790000000000000000e+02,2.034240100000000098e+02
3.800000000000000000e+02,2.036254700000000071e+02
3.810000000000000000e+02,2.038266000000000133e+02
3.820000000000000000e+02,2.040272500000000093e+02
3.830000000000000000e+02,2.042276799999999923e+02
3.840000000000000000e+02,2.044276000000000124e+02
3.850000000000000000e+02,2.046271700000000067e+02
3.860000000000000000e+02,2.048264200000000130e+02
3.870000000000000000e+02,2.050252700000000061e+02
3.880000000000000000e+02,2.052237199999999859e+02
3.890000000000000000e+02,2.054218400000000031e+02
3.900000000000000000e+02,2.056195700000000102e+02
3.910000000000000000e+02,2.058169100000000071e+02
3.920000000000000000e+02,2.060139200000000130e+02
3.930000000000000000e+02,2.062105300000000057e+02
3.940000000000000000e+02,2.064067499999999882e+02
3.950000000000000000e+02,2.066026799999999923e+02
3.960000000000000000e+02,2.067981900000000053e+02
3.970000000000000000e+02,2.069933299999999861e+02
3.980000000000000000e+02,2.071881400000000042e+02
3.990000000000000000e+02,2.073825699999999870e+02
4.000000000000000000e+02,2.075766000000000133e+02
4.010000000000000000e+02,2.077703199999999981e+02
4.020000000000000000e+02,2.079636399999999981e+02
4.030000000000000000e+02,2.081565600000000131e+02
4.040000000000000000e+02,2.083491999999999962e+02
4.050000000000000000e+02,2.085414000000000101e+02
4.060000000000000000e+02,2.087332900000000109e+02
4.070000000000000000e+02,2.089247699999999952e+02
4.080000000000000000e+02,2.091159499999999980e+02
4.090000000000000000e+02,2.093066900000000032e+02
4.100000000000000000e+02,2.094971799999999860e+02
4.110000000000000000e+02,2.096871899999999869e+02
4.120000000000000000e+02,2.098769200000000126e+02
4.130000000000000000e+02,2.100662700000000029e+02
4.140000000000000000e+02,2.102552799999999991e+02
4.150000000000000000e+02,2.104438600000000008e+02
4.160000000000000000e+02,2.106321900000000085e+02
4.170000000000000000e+02,2.108200699999999870e+02
4.180000000000000000e+02,2.110076400000000092e+02
4.190000000000000000e+02,2.111948399999999992e+02
4.200000000000000000e+02,2.113817099999999982e+02
4.210000000000000000e+02,2.115681500000000028e+02
4.220000000000000000e+02,2.117543300000000102e+02
4.230000000000000000e+02,2.119400599999999883e+02
4.240000000000000000e+02,2.121254999999999882e+02
4.250000000000000000e+02,2.123105899999999906e+02
4.260000000000000000e+02,2.124953199999999924e+02
4.270000000000000000e+02,2.126796600000000126e+02
4.280000000000000000e+02,2.128636899999999912e+02
4.290000000000000000e+02,2.130473499999999945e+02
4.300000000000000000e+02,2.132306199999999876e+02
4.310000000000000000e+02,2.134136000000000024e+02
4.320000000000000000e+02,2.135962100000000135e+02
4.330000000000000000e+02,2.137784699999999987e+02
4.340000000000000000e+02,2.139603700000000117e+02
4.350000000000000000e+02,2.141419500000000085e+02
4.360000000000000000e+02,2.143231000000000108e+02
4.370000000000000000e+02,2.145039999999999907e+02
4.380000000000000000e+02,2.146844800000000077e+02
4.390000000000000000e+02,2.148646099999999990e+02
4.400000000000000000e+02,2.150444500000000119e+02
4.410000000000000000e+02,2.152238900000000115e+02
4.420000000000000000e+02,2.154029800000000137e+02
4.430000000000000000e+02,2.155817700000000059e+02
4.440000000000000000e+02,2.157601899999999944e+02
4.450000000000000000e+02,2.159382300000000043e+02
4.460000000000000000e+02,2.161159800000000075e+02
4.470000000000000000e+02,2.162933500000000038e+02
4.480000000000000000e+02,2.164703499999999963e+02
4.490000000000000000e+02,2.166470799999999883e+02
4.500000000000000000e+02,2.168234099999999955e+02
4.510000000000000000e+02,2.169993900000000053e+02
4.520000000000000000e+02,2.171750600000000020e+02
4.530000000000000000e+02,2.173503599999999949e+02
4.540000000000000000e+02,2.175252800000000093e+02
4.550000000000000000e+02,2.176999399999999980e+02
4.560000000000000000e+02,2.178742100000000050e+02
4.570000000000000000e+02,2.180481299999999862e+02
4.580000000000000000e+02,2.182217599999999891e+02
4.590000000000000000e+02,2.183949700000000007e+02
4.600000000000000000e+02,2.185678900000000056e+02
4.610000000000000000e+02,2.187404899999999941e+02
4.620000000000000000e+02,2.189127000000000010e+02
4.630000000000000000e+02,2.190845600000000104e+02
4.640000000000000000e+02,2.192561300000000131e+02
4.650000000000000000e+02,2.194273399999999867e+02
4.660000000000000000e+02,2.195981400000000008e+02
4.670000000000000000e+02,2.197687099999999987e+02
4.680000000000000000e+02,2.199388399999999990e+02
4.690000000000000000e+02,2.201086899999999957e+02
4.700000000000000000e+02,2.202782300000000077e+02
4.710000000000000000e+02,2.204473999999999876e+02
4.720000000000000000e+02,2.206162300000000016e+02
4.730000000000000000e+02,2.207847299999999962e+02
4.740000000000000000e+02,2.209528999999999996e+02
4.750000000000000000e+02,2.211206699999999898e+02
4.760000000000000000e+02,2.212882099999999923e+02
4.770000000000000000e+02,2.214553099999999972e+02
4.780000000000000000e+02,2.216221299999999985e+02
4.790000000000000000e+02,2.217886399999999867e+02
4.800000000000000000e+02,2.219547399999999868e+02
4.810000000000000000e+02,2.221205400000000054e+02
4.820000000000000000e+02,2.222860000000000014e+02
4.830000000000000000e+02,2.224511400000000094e+02
4.840000000000000000e+02,2.226158900000000074e+02
4.850000000000000000e+02,2.227804099999999892e+02
4.860000000000000000e+02,2.229445599999999956e+02
4.870000000000000000e+02,2.231083199999999920e+02
4.880000000000000000e+02,2.232718500000000006e+02
4.890000000000000000e+02,2.234349499999999864e+02
4.900000000000000000e+02,2.235977599999999939e+02
4.910000000000000000e+02,2.237602400000000102e+02
4.920000000000000000e+02,2.239223800000000040e+02
4.930000000000000000e+02,2.240842100000000130e+02
4.940000000000000000e+02,2.242456999999999994e+02
4.950000000000000000e+02,2.244068599999999947e+02
4.960000000000000000e+02,2.245676599999999894e+02
4.970000000000000000e+02,2.247281600000000026e+02
4.980000000000000000e+02,2.248883199999999931e+02
4.990000000000000000e+02,2.250481299999999862e+02
5.000000000000000000e+02,2.252077199999999948e+02
5.010000000000000000e+02,2.253668800000000090e+02
5.020000000000000000e+02,2.255257300000000100e+02
5.030000000000000000e+02,2.256843000000000075e+02
5.040000000000000000e+02,2.258424799999999948e+02
5.050000000000000000e+02,2.260003800000000069e+02
5.060000000000000000e+02,2.261579399999999964e+02
5.070000000000000000e+02,2.263151900000000012e+02
5.080000000000000000e+02,2.264720800000000054e+02
5.090000000000000000e+02,2.266286800000000028e+02
5.100000000000000000e+02,2.267849600000000123e+02
5.110000000000000000e+02,2.269408699999999897e+02
5.120000000000000000e+02,2.270965099999999950e+02
5.130000000000000000e+02,2.272517899999999997e+02
5.140000000000000000e+02,2.274067499999999882e+02
5.150000000000000000e+02,2.275614300000000014e+02
5.160000000000000000e+02,2.277157699999999920e+02
5.170000000000000000e+02,2.278697699999999884e+02
5.180000000000000000e+02,2.280235000000000127e+02
5.190000000000000000e+02,2.281768600000000049e+02
5.200000000000000000e+02,2.283299100000000124e+02
5.210000000000000000e+02,2.284826799999999878e+02
5.220000000000000000e+02,2.286350999999999942e+02
5.230000000000000000e+02,2.287872000000000128e+02
5.240000000000000000e+02,2.289390300000000025e+02
5.250000000000000000e+02,2.290904500000000041e+02
5.260000000000000000e+02,2.292416399999999896e+02
5.270000000000000000e+02,2.293925000000000125e+02
5.280000000000000000e+02,2.295430299999999875e+02
5.290000000000000000e+02,2.296932400000000030e+02
5.300000000000000000e+02,2.298431500000000085e+02
5.310000000000000000e+02,2.299927500000000009e+02
5.320000000000000000e+02,2.301419999999999959e+02
5.330000000000000000e+02,2.302909999999999968e+02
5.340000000000000000e+02,2.304396700000000067e+02
5.350000000000000000e+02,2.305880099999999970e+02
5.360000000000000000e+02,2.307360700000000122e+02
5.370000000000000000e+02,2.308838000000000079e+02
5.380000000000000000e+02,2.310311700000000030e+02
5.390000000000000000e+02,2.311783299999999883e+02
5.400000000000000000e+02,2.313251300000000015e+02
5.410000000000000000e+02,2.314715999999999951e+02
5.420000000000000000e+02,2.316178299999999979e+02
5.430000000000000000e+02,2.317636699999999905e+02
5.440000000000000000e+02,2.319092599999999891e+02
5.450000000000000000e+02,2.320545700000000124e+02
5.460000000000000000e+02,2.321994899999999973e+02
5.470000000000000000e+02,2.323441599999999880e+02
5.480000000000000000e+02,2.324885700000000099e+02
5.490000000000000000e+02,2.326325999999999965e+02
5.500000000000000000e+02,2.327763699999999858e+02
5.510000000000000000e+02,2.329198000000000093e+02
5.520000000000000000e+02,2.330629700000000071e+02
5.530000000000000000e+02,2.332058299999999917e+02
5.540000000000000000e+02,2.333483699999999885e+02
5.550000000000000000e+02,2.334906300000000101e+02
5.560000000000000000e+02,2.336325799999999902e+02
5.570000000000000000e+02,2.337742200000000139e+02
5.580000000000000000e+02,2.339155900000000088e+02
5.590000000000000000e+02,2.340566300000000126e+02
5.600000000000000000e+02,2.341973999999999876e+02
5.610000000000000000e+02,2.343378899999999874e+02
5.620000000000000000e+02,2.344780299999999897e+02
5.630000000000000000e+02,2.346179400000000044e+02
5.640000000000000000e+02,2.347575400000000059e+02
5.650000000000000000e+02,2.348967700000000036e+02
5.660000000000000000e+02,2.350358099999999979e+02
5.670000000000000000e+02,2.351745099999999979e+02
5.680000000000000000e+02,2.353128800000000069e+02
5.690000000000000000e+02,2.354510300000000029e+02
5.700000000000000000e+02,2.355888400000000047e+02
5.710000000000000000e+02,2.357263499999999965e+02
5.720000000000000000e+02,2.358636300000000006e+02
5.730000000000000000e+02,2.360005600000000072e+02
5.740000000000000000e+02,2.361372100000000103e+02
5.750000000000000000e+02,2.362736400000000003e+02
5.760000000000000000e+02,2.364096999999999866e+02
5.770000000000000000e+02,2.365454699999999946e+02
5.780000000000000000e+02,2.366810499999999990e+02
5.790000000000000000e+02,2.368162499999999966e+02
5.800000000000000000e+02,2.369511699999999905e+02
5.810000000000000000e+02,2.370858499999999935e+02
5.820000000000000000e+02,2.372202299999999866e+02
5.830000000000000000e+02,2.373542899999999918e+02
5.840000000000000000e+02,2.374881100000000060e+02
5.850000000000000000e+02,2.376216400000000135e+02
5.860000000000000000e+02,2.377548700000000110e+02
5.870000000000000000e+02,2.378878300000000081e+02
5.880000000000000000e+02,2.380205100000000016e+02
5.890000000000000000e+02,2.381528800000000103e+02
5.900000000000000000e+02,2.382850200000000029e+02
5.910000000000000000e+02,2.384168500000000108e+02
5.920000000000000000e+02,2.385483900000000119e+02
5.930000000000000000e+02,2.386796899999999937e+02
5.940000000000000000e+02,2.388106999999999971e+02
5.950000000000000000e+02,2.389414099999999905e+02
5.960000000000000000e+02,2.390718500000000120e+02
5.970000000000000000e+02,2.392020300000000077e+02
5.980000000000000000e+02,2.393318899999999871e+02
5.990000000000000000e+02,2.394615300000000104e+02