# Time [s], Temperature [C]
1.000000000000000000e+00,2.500000000000000000e+01
2.000000000000000000e+00,2.500000000000000000e+01
3.000000000000000000e+00,2.500000000000000000e+01
4.000000000000000000e+00,2.500000000000000000e+01
5.000000000000000000e+00,2.500000800000000112e+01
6.000000000000000000e+00,2.500004600000000110e+01
7.000000000000000000e+00,2.500020200000000159e+01
8.000000000000000000e+00,2.500071700000000163e+01
9.000000000000000000e+00,2.500213099999999855e+01
1.000000000000000000e+01,2.500547399999999953e+01
1.100000000000000000e+01,2.501246599999999987e+01
1.200000000000000000e+01,2.502566099999999949e+01
1.300000000000000000e+01,2.504850199999999916e+01
1.400000000000000000e+01,2.508527799999999885e+01
1.500000000000000000e+01,2.514099300000000170e+01
1.600000000000000000e+01,2.522118800000000149e+01
1.700000000000000000e+01,2.533172400000000124e+01
1.800000000000000000e+01,2.547858599999999996e+01
1.900000000000000000e+01,2.566768599999999978e+01
2.000000000000000000e+01,2.590471600000000052e+01
2.100000000000000000e+01,2.619501500000000149e+01
2.200000000000000000e+01,2.654348600000000147e+01
2.300000000000000000e+01,2.695451900000000123e+01
2.400000000000000000e+01,2.743192300000000117e+01
2.500000000000000000e+01,2.797892200000000074e+01
2.600000000000000000e+01,2.859805499999999867e+01
2.700000000000000000e+01,2.929132500000000050e+01
2.800000000000000000e+01,3.006009699999999896e+01
2.900000000000000000e+01,3.090514200000000145e+01
3.000000000000000000e+01,3.182673600000000036e+01
3.100000000000000000e+01,3.282471799999999718e+01
3.200000000000000000e+01,3.389844899999999939e+01
3.300000000000000000e+01,3.504694400000000343e+01
3.400000000000000000e+01,3.626905800000000113e+01
3.500000000000000000e+01,3.756325900000000217e+01
3.600000000000000000e+01,3.892790600000000012e+01
3.700000000000000000e+01,4.036131699999999967e+01
3.800000000000000000e+01,4.186159500000000122e+01
3.900000000000000000e+01,4.342674300000000187e+01
4.000000000000000000e+01,4.505487099999999856e+01
4.100000000000000000e+01,4.674403800000000331e+01
4.200000000000000000e+01,4.849216100000000296e+01
4.300000000000000000e+01,5.029727199999999954e+01
4.400000000000000000e+01,5.215733699999999828e+01
4.500000000000000000e+01,5.407047699999999679e+01
4.600000000000000000e+01,5.603478599999999687e+01
4.700000000000000000e+01,5.804832499999999840e+01
4.800000000000000000e+01,6.010924099999999726e+01
4.900000000000000000e+01,6.221578199999999725e+01
5.000000000000000000e+01,6.436623400000000572e+01
5.100000000000000000e+01,6.655878400000000283e+01
5.200000000000000000e+01,6.879192399999999452e+01
5.300000000000000000e+01,7.106393400000000327e+01
5.400000000000000000e+01,7.337334400000000301e+01
5.500000000000000000e+01,7.571861300000000483e+01
5.600000000000000000e+01,7.809827400000000353e+01
5.700000000000000000e+01,8.051089500000000498e+01
5.800000000000000000e+01,8.295511600000000385e+01
5.900000000000000000e+01,8.542959600000000364e+01
6.000000000000000000e+01,8.793314399999999864e+01
6.100000000000000000e+01,9.047258800000000178e+01
6.200000000000000000e+01,9.303396600000000660e+01
6.300000000000000000e+01,9.561965200000000209e+01
6.400000000000000000e+01,9.822914099999999848e+01
6.500000000000000000e+01,1.008616700000000037e+02
6.600000000000000000e+01,1.035162700000000058e+02
6.700000000000000000e+01,1.061919900000000041e+02
6.800000000000000000e+01,1.088880500000000069e+02
6.900000000000000000e+01,1.116037100000000066e+02
7.000000000000000000e+01,1.143380700000000019e+02
7.100000000000000000e+01,1.170903399999999976e+02
7.200000000000000000e+01,1.198595899999999972e+02
7.300000000000000000e+01,1.226450899999999962e+02
7.400000000000000000e+01,1.254459800000000058e+02
7.500000000000000000e+01,1.282614100000000121e+02
7.600000000000000000e+01,1.310905899999999917e+02
7.700000000000000000e+01,1.339327900000000113e+02
7.800000000000000000e+01,1.367870200000000125e+02
7.900000000000000000e+01,1.396525599999999940e+02
8.000000000000000000e+01,1.425286099999999863e+02
8.100000000000000000e+01,1.454143699999999910e+02
8.200000000000000000e+01,1.483090500000000134e+02
8.300000000000000000e+01,1.512120199999999954e+02
8.400000000000000000e+01,1.541224100000000021e+02
8.500000000000000000e+01,1.570394599999999912e+02
8.600000000000000000e+01,1.599626199999999869e+02
8.700000000000000000e+01,1.628910199999999975e+02
8.800000000000000000e+01,1.658239599999999996e+02
8.900000000000000000e+01,1.687609099999999955e+02
9.000000000000000000e+01,1.717010500000000093e+02
9.100000000000000000e+01,1.746437099999999987e+02
9.200000000000000000e+01,1.775883800000000008e+02
9.300000000000000000e+01,1.805342400000000112e+02
9.400000000000000000e+01,1.834806499999999971e+02
9.500000000000000000e+01,1.864271099999999990e+02
9.600000000000000000e+01,1.893728000000000122e+02
9.700000000000000000e+01,1.923170800000000042e+02
9.800000000000000000e+01,1.952593999999999994e+02
9.900000000000000000e+01,1.981989900000000091e+02
1.000000000000000000e+02,2.011352200000000039e+02
1.010000000000000000e+02,2.040675400000000081e+02
1.020000000000000000e+02,2.069951199999999858e+02
1.030000000000000000e+02,2.099172700000000020e+02
1.040000000000000000e+02,2.128334000000000117e+02
1.050000000000000000e+02,2.157426600000000008e+02
1.060000000000000000e+02,2.186443600000000060e+02
1.070000000000000000e+02,2.215377300000000105e+02
1.080000000000000000e+02,2.244220899999999972e+02
1.090000000000000000e+02,2.272965499999999963e+02
1.100000000000000000e+02,2.301603499999999940e+02
1.110000000000000000e+02,2.330126799999999889e+02
1.120000000000000000e+02,2.358530299999999897e+02
1.130000000000000000e+02,2.386802099999999882e+02
1.140000000000000000e+02,2.414941100000000063e+02
1.150000000000000000e+02,2.442947200000000123e+02
1.160000000000000000e+02,2.470815599999999961e+02
1.170000000000000000e+02,2.498533899999999903e+02
1.180000000000000000e+02,2.526081399999999917e+02
1.190000000000000000e+02,2.553436000000000092e+02
1.200000000000000000e+02,2.580576800000000048e+02
1.210000000000000000e+02,2.607484699999999975e+02
1.220000000000000000e+02,2.634142800000000193e+02
1.230000000000000000e+02,2.660530999999999722e+02
1.240000000000000000e+02,2.686629599999999982e+02
1.250000000000000000e+02,2.712418799999999806e+02
1.260000000000000000e+02,2.737874499999999784e+02
1.270000000000000000e+02,2.762973900000000071e+02
1.280000000000000000e+02,2.787692599999999743e+02
1.290000000000000000e+02,2.812002600000000143e+02
1.300000000000000000e+02,2.835876799999999776e+02
1.310000000000000000e+02,2.859286799999999857e+02
1.320000000000000000e+02,2.882203099999999836e+02
1.330000000000000000e+02,2.904597499999999854e+02
1.340000000000000000e+02,2.926440400000000182e+02
1.350000000000000000e+02,2.947703900000000203e+02
1.360000000000000000e+02,2.968360900000000129e+02
1.370000000000000000e+02,2.988388699999999858e+02
1.380000000000000000e+02,3.007765800000000240e+02
1.390000000000000000e+02,3.026474900000000048e+02
1.400000000000000000e+02,3.044504400000000146e+02
1.410000000000000000e+02,3.061845999999999890e+02
1.420000000000000000e+02,3.078497600000000034e+02
1.430000000000000000e+02,3.094465900000000147e+02
1.440000000000000000e+02,3.109759199999999737e+02
1.450000000000000000e+02,3.124396100000000160e+02
1.460000000000000000e+02,3.138400599999999940e+02
1.470000000000000000e+02,3.151800200000000132e+02
1.480000000000000000e+02,3.164630099999999970e+02
1.490000000000000000e+02,3.176928100000000086e+02
1.500000000000000000e+02,3.188736000000000104e+02
1.510000000000000000e+02,3.200650899999999979e+02
1.520000000000000000e+02,3.212022400000000175e+02
1.530000000000000000e+02,3.222994400000000041e+02
1.540000000000000000e+02,3.233575099999999907e+02
1.550000000000000000e+02,3.243785100000000057e+02
1.560000000000000000e+02,3.253697199999999725e+02
1.570000000000000000e+02,3.263391100000000051e+02
1.580000000000000000e+02,3.272934000000000196e+02
1.590000000000000000e+02,3.282381599999999935e+02
1.600000000000000000e+02,3.291778299999999717e+02
1.610000000000000000e+02,3.301162699999999859e+02
1.620000000000000000e+02,3.310566999999999780e+02
1.630000000000000000e+02,3.320022599999999784e+02
1.640000000000000000e+02,3.329553500000000099e+02
1.650000000000000000e+02,3.339185200000000009e+02
1.660000000000000000e+02,3.348937399999999798e+02
1.670000000000000000e+02,3.358833599999999819e+02
1.680000000000000000e+02,3.368894999999999982e+02
1.690000000000000000e+02,3.379134500000000116e+02
1.700000000000000000e+02,3.389575500000000261e+02
1.710000000000000000e+02,3.400233200000000124e+02
1.720000000000000000e+02,3.411127000000000180e+02
1.730000000000000000e+02,3.422271099999999819e+02
1.740000000000000000e+02,3.433685899999999833e+02
1.750000000000000000e+02,3.445389099999999871e+02
1.760000000000000000e+02,3.457400200000000154e+02
1.770000000000000000e+02,3.469738199999999892e+02
1.780000000000000000e+02,3.482423699999999940e+02
1.790000000000000000e+02,3.495483399999999961e+02
1.800000000000000000e+02,3.508931900000000041e+02
1.810000000000000000e+02,3.522799699999999916e+02
1.820000000000000000e+02,3.537109100000000126e+02
1.830000000000000000e+02,3.551890599999999836e+02
1.840000000000000000e+02,3.567179600000000050e+02
1.850000000000000000e+02,3.583003800000000183e+02
1.860000000000000000e+02,3.599394199999999842e+02
1.870000000000000000e+02,3.616390999999999849e+02
1.880000000000000000e+02,3.634039300000000026e+02
1.890000000000000000e+02,3.657807000000000244e+02
1.900000000000000000e+02,3.677441400000000158e+02
1.910000000000000000e+02,3.696941199999999981e+02
1.920000000000000000e+02,3.717313500000000204e+02
1.930000000000000000e+02,3.738645599999999831e+02
1.940000000000000000e+02,3.760976900000000001e+02
1.950000000000000000e+02,3.784325600000000236e+02
1.960000000000000000e+02,3.808704799999999864e+02
1.970000000000000000e+02,3.834135999999999740e+02
1.980000000000000000e+02,3.860638999999999896e+02
1.990000000000000000e+02,3.888183300000000031e+02
2.000000000000000000e+02,3.916772199999999771e+02
2.010000000000000000e+02,3.946348899999999844e+02
2.020000000000000000e+02,3.976851500000000215e+02
2.030000000000000000e+02,4.008176900000000273e+02
2.040000000000000000e+02,4.040192299999999932e+02
2.050000000000000000e+02,4.072738600000000133e+02
2.060000000000000000e+02,4.105640300000000025e+02
2.070000000000000000e+02,4.138701199999999858e+02
2.080000000000000000e+02,4.171732200000000148e+02
2.090000000000000000e+02,4.204549299999999903e+02
2.100000000000000000e+02,4.237017200000000230e+02
2.110000000000000000e+02,4.269020399999999995e+02
2.120000000000000000e+02,4.300476400000000012e+02
2.130000000000000000e+02,4.331346700000000283e+02
2.140000000000000000e+02,4.361607399999999757e+02
2.150000000000000000e+02,4.391265599999999836e+02
2.160000000000000000e+02,4.420335999999999785e+02
2.170000000000000000e+02,4.448842799999999897e+02
2.180000000000000000e+02,4.476820099999999911e+02
2.190000000000000000e+02,4.504301500000000260e+02
2.200000000000000000e+02,4.531322900000000118e+02
2.210000000000000000e+02,4.557915300000000229e+02
2.220000000000000000e+02,4.584115300000000275e+02
2.230000000000000000e+02,4.609949300000000108e+02
2.240000000000000000e+02,4.635441000000000145e+02
2.250000000000000000e+02,4.660608500000000163e+02
2.260000000000000000e+02,4.685468399999999747e+02
2.270000000000000000e+02,4.710037800000000061e+02
2.280000000000000000e+02,4.734330400000000054e+02
2.290000000000000000e+02,4.758356600000000185e+02
2.300000000000000000e+02,4.782130099999999970e+02
2.310000000000000000e+02,4.805658300000000054e+02
2.320000000000000000e+02,4.828949900000000071e+02
2.330000000000000000e+02,4.852017799999999852e+02
2.340000000000000000e+02,4.874863899999999717e+02
2.350000000000000000e+02,4.897500000000000000e+02
2.360000000000000000e+02,4.919931300000000078e+02
2.370000000000000000e+02,4.942162500000000023e+02
2.380000000000000000e+02,4.964202300000000037e+02
2.390000000000000000e+02,4.986050099999999929e+02
2.400000000000000000e+02,5.007716699999999719e+02
2.410000000000000000e+02,5.029208699999999794e+02
2.420000000000000000e+02,5.050525200000000154e+02
2.430000000000000000e+02,5.071672399999999925e+02
2.440000000000000000e+02,5.092656900000000064e+02
2.450000000000000000e+02,5.113479600000000005e+02
2.460000000000000000e+02,5.134143699999999626e+02
2.470000000000000000e+02,5.154653899999999567e+02
2.480000000000000000e+02,5.175011600000000271e+02
2.490000000000000000e+02,5.195220900000000483e+02
2.500000000000000000e+02,5.215285599999999704e+02
2.510000000000000000e+02,5.235208699999999453e+02
2.520000000000000000e+02,5.254991499999999860e+02
2.530000000000000000e+02,5.274636799999999539e+02
2.540000000000000000e+02,5.294148599999999760e+02
2.550000000000000000e+02,5.313528400000000147e+02
2.560000000000000000e+02,5.332778299999999945e+02
2.570000000000000000e+02,5.351897599999999784e+02
2.580000000000000000e+02,5.370891100000000051e+02
2.590000000000000000e+02,5.389762600000000248e+02
2.600000000000000000e+02,5.408509500000000116e+02
2.610000000000000000e+02,5.427134399999999914e+02
2.620000000000000000e+02,5.445642100000000028e+02
2.630000000000000000e+02,5.464030800000000454e+02
2.640000000000000000e+02,5.482305300000000443e+02
2.650000000000000000e+02,5.500465100000000120e+02
2.660000000000000000e+02,5.518508900000000494e+02
2.670000000000000000e+02,5.536443500000000313e+02
2.680000000000000000e+02,5.554265699999999697e+02
2.690000000000000000e+02,5.571976899999999659e+02
2.700000000000000000e+02,5.589582500000000209e+02
2.710000000000000000e+02,5.607080700000000206e+02
2.720000000000000000e+02,5.624473900000000413e+02
2.730000000000000000e+02,5.641761500000000069e+02
2.740000000000000000e+02,5.658945899999999938e+02
2.750000000000000000e+02,5.676026600000000144e+02
2.760000000000000000e+02,5.693006599999999935e+02
2.770000000000000000e+02,5.709883399999999938e+02
2.780000000000000000e+02,5.726660799999999654e+02
2.790000000000000000e+02,5.743339799999999968e+02
2.800000000000000000e+02,5.759919399999999996e+02
2.810000000000000000e+02,5.776402600000000120e+02
2.820000000000000000e+02,5.792788100000000213e+02
2.830000000000000000e+02,5.809077099999999518e+02
2.840000000000000000e+02,5.825271000000000186e+02
2.850000000000000000e+02,5.841371500000000196e+02
2.860000000000000000e+02,5.857377300000000560e+02
2.870000000000000000e+02,5.873291000000000395e+02
2.880000000000000000e+02,5.889111299999999574e+02
2.890000000000000000e+02,5.904838899999999740e+02
2.900000000000000000e+02,5.920474900000000389e+02
2.910000000000000000e+02,5.936019900000000007e+02
2.920000000000000000e+02,5.951476400000000240e+02
2.930000000000000000e+02,5.966843900000000076e+02
2.940000000000000000e+02,5.982122799999999643e+02
2.950000000000000000e+02,5.997313199999999824e+02
2.960000000000000000e+02,6.012413299999999481e+02
2.970000000000000000e+02,6.027428599999999506e+02
2.980000000000000000e+02,6.042356600000000526e+02
2.990000000000000000e+02,6.057198499999999513e+02
3.000000000000000000e+02,6.071953700000000254e+02
3.010000000000000000e+02,6.086625999999999976e+02
3.020000000000000000e+02,6.101212799999999561e+02
3.030000000000000000e+02,6.115714699999999766e+02
3.040000000000000000e+02,6.130134299999999712e+02
3.050000000000000000e+02,6.144470800000000281e+02
3.060000000000000000e+02,6.158723099999999704e+02
3.070000000000000000e+02,6.172893699999999626e+02
3.080000000000000000e+02,6.186981200000000172e+02
3.090000000000000000e+02,6.200988800000000083e+02
3.100000000000000000e+02,6.214914599999999609e+02
3.110000000000000000e+02,6.228760999999999513e+02
3.120000000000000000e+02,6.242526900000000296e+02
3.130000000000000000e+02,6.256212799999999561e+02
3.140000000000000000e+02,6.269821200000000090e+02
3.150000000000000000e+02,6.283350799999999481e+02
3.160000000000000000e+02,6.296802400000000262e+02
3.170000000000000000e+02,6.310174600000000282e+02
3.180000000000000000e+02,6.323469199999999546e+02
3.190000000000000000e+02,6.336687600000000202e+02
3.200000000000000000e+02,6.349827900000000227e+02
3.210000000000000000e+02,6.362892500000000382e+02
3.220000000000000000e+02,6.375881299999999783e+02
3.230000000000000000e+02,6.388795199999999568e+02
3.240000000000000000e+02,6.401632700000000114e+02
3.250000000000000000e+02,6.414396400000000540e+02
3.260000000000000000e+02,6.427085600000000341e+02
3.270000000000000000e+02,6.439700900000000274e+02
3.280000000000000000e+02,6.452242999999999711e+02
3.290000000000000000e+02,6.464712500000000546e+02
3.300000000000000000e+02,6.477108200000000124e+02
3.310000000000000000e+02,6.489431200000000217e+02
3.320000000000000000e+02,6.501682100000000446e+02
3.330000000000000000e+02,6.513861100000000306e+02
3.340000000000000000e+02,6.525968599999999924e+02
3.350000000000000000e+02,6.538005399999999554e+02
3.360000000000000000e+02,6.549971299999999701e+02
3.370000000000000000e+02,6.561866499999999860e+02
3.380000000000000000e+02,6.573691999999999780e+02
3.390000000000000000e+02,6.585448599999999715e+02
3.400000000000000000e+02,6.597135600000000295e+02
3.410000000000000000e+02,6.608753100000000131e+02
3.420000000000000000e+02,6.620300899999999729e+02
3.430000000000000000e+02,6.631782200000000103e+02
3.440000000000000000e+02,6.643195799999999736e+02
3.450000000000000000e+02,6.654541600000000017e+02
3.460000000000000000e+02,6.665821499999999560e+02
3.470000000000000000e+02,6.677033699999999499e+02
3.480000000000000000e+02,6.688178100000000086e+02
3.490000000000000000e+02,6.699258399999999938e+02
3.500000000000000000e+02,6.710272200000000566e+02
3.510000000000000000e+02,6.721220100000000457e+02
3.520000000000000000e+02,6.732102700000000368e+02
3.530000000000000000e+02,6.742922399999999925e+02
3.540000000000000000e+02,6.753676100000000133e+02
3.550000000000000000e+02,6.764366499999999860e+02
3.560000000000000000e+02,6.774992700000000241e+02
3.570000000000000000e+02,6.785555399999999509e+02
3.580000000000000000e+02,6.796054100000000062e+02
3.590000000000000000e+02,6.806491099999999506e+02
3.600000000000000000e+02,6.816865800000000490e+02
3.610000000000000000e+02,6.827177100000000110e+02
3.620000000000000000e+02,6.837427400000000262e+02
3.630000000000000000e+02,6.847615399999999681e+02
3.640000000000000000e+02,6.857743500000000267e+02
3.650000000000000000e+02,6.867810100000000375e+02
3.660000000000000000e+02,6.877816800000000512e+02
3.670000000000000000e+02,6.887762500000000045e+02
3.680000000000000000e+02,6.897649499999999989e+02
3.690000000000000000e+02,6.907475600000000213e+02
3.700000000000000000e+02,6.917242999999999711e+02
3.710000000000000000e+02,6.926951299999999492e+02
3.720000000000000000e+02,6.936601000000000568e+02
3.730000000000000000e+02,6.946191999999999780e+02
3.740000000000000000e+02,6.955725700000000415e+02
3.750000000000000000e+02,6.965201399999999694e+02
3.760000000000000000e+02,6.974619099999999889e+02
3.770000000000000000e+02,6.983979500000000371e+02
3.780000000000000000e+02,6.993284300000000258e+02
3.790000000000000000e+02,7.002531699999999546e+02
3.800000000000000000e+02,7.011722999999999502e+02
3.810000000000000000e+02,7.020858799999999746e+02
3.820000000000000000e+02,7.029938399999999774e+02
3.830000000000000000e+02,7.038962999999999965e+02
3.840000000000000000e+02,7.047932100000000446e+02
3.850000000000000000e+02,7.056847500000000082e+02
3.860000000000000000e+02,7.065707400000000007e+02
3.870000000000000000e+02,7.074513500000000477e+02
3.880000000000000000e+02,7.083266599999999471e+02
3.890000000000000000e+02,7.091964699999999766e+02
3.900000000000000000e+02,7.100610400000000482e+02
3.910000000000000000e+02,7.109202900000000227e+02
3.920000000000000000e+02,7.117742299999999886e+02
3.930000000000000000e+02,7.126229200000000219e+02
3.940000000000000000e+02,7.134664900000000216e+02
3.950000000000000000e+02,7.143048099999999749e+02
3.960000000000000000e+02,7.151380000000000337e+02
3.970000000000000000e+02,7.159660599999999704e+02
3.980000000000000000e+02,7.167889400000000251e+02
3.990000000000000000e+02,7.176069300000000339e+02
4.000000000000000000e+02,7.184197400000000471e+02
4.010000000000000000e+02,7.192275399999999763e+02
4.020000000000000000e+02,7.200303300000000490e+02
4.030000000000000000e+02,7.208281899999999496e+02
4.040000000000000000e+02,7.216210899999999810e+02
4.050000000000000000e+02,7.224090599999999540e+02
4.060000000000000000e+02,7.231921999999999571e+02
4.070000000000000000e+02,7.239703399999999647e+02
4.080000000000000000e+02,7.247437700000000405e+02
4.090000000000000000e+02,7.255123899999999821e+02
4.100000000000000000e+02,7.262762500000000045e+02
4.110000000000000000e+02,7.270353999999999814e+02
4.120000000000000000e+02,7.277897900000000391e+02
4.130000000000000000e+02,7.285395499999999629e+02
4.140000000000000000e+02,7.292846700000000055e+02
4.150000000000000000e+02,7.300250200000000405e+02
4.160000000000000000e+02,7.307607400000000553e+02
4.170000000000000000e+02,7.314919399999999996e+02
4.180000000000000000e+02,7.322186299999999619e+02
4.190000000000000000e+02,7.329407300000000305e+02
4.200000000000000000e+02,7.336583299999999781e+02
4.210000000000000000e+02,7.343713400000000320e+02
4.220000000000000000e+02,7.350800199999999904e+02
4.230000000000000000e+02,7.357842399999999543e+02
4.240000000000000000e+02,7.364840100000000120e+02
4.250000000000000000e+02,7.371794399999999996e+02
4.260000000000000000e+02,7.378704800000000432e+02
4.270000000000000000e+02,7.385572499999999536e+02
4.280000000000000000e+02,7.392396199999999453e+02
4.290000000000000000e+02,7.399177200000000312e+02
4.300000000000000000e+02,7.405916099999999460e+02
4.310000000000000000e+02,7.412612299999999550e+02
4.320000000000000000e+02,7.419265699999999697e+02
4.330000000000000000e+02,7.425878300000000536e+02
4.340000000000000000e+02,7.432449299999999539e+02
4.350000000000000000e+02,7.438978299999999990e+02
4.360000000000000000e+02,7.445466300000000501e+02
4.370000000000000000e+02,7.451912800000000061e+02
4.380000000000000000e+02,7.458319099999999935e+02
4.390000000000000000e+02,7.464685100000000375e+02
4.400000000000000000e+02,7.471010099999999738e+02
4.410000000000000000e+02,7.477296099999999797e+02
4.420000000000000000e+02,7.483541300000000547e+02
4.430000000000000000e+02,7.489747899999999845e+02
4.440000000000000000e+02,7.495914900000000216e+02
4.450000000000000000e+02,7.502042800000000398e+02
4.460000000000000000e+02,7.508131700000000137e+02
4.470000000000000000e+02,7.514182100000000446e+02
4.480000000000000000e+02,7.520194099999999935e+02
4.490000000000000000e+02,7.526167599999999993e+02
4.500000000000000000e+02,7.532103299999999990e+02
4.510000000000000000e+02,7.538001100000000179e+02
4.520000000000000000e+02,7.543862299999999550e+02
4.530000000000000000e+02,7.549685100000000375e+02
4.540000000000000000e+02,7.555471199999999499e+02
4.550000000000000000e+02,7.561220700000000079e+02
4.560000000000000000e+02,7.566933599999999842e+02
4.570000000000000000e+02,7.572610499999999547e+02
4.580000000000000000e+02,7.578250100000000202e+02
4.590000000000000000e+02,7.583854999999999791e+02
4.600000000000000000e+02,7.589423199999999952e+02
4.610000000000000000e+02,7.594955400000000054e+02
4.620000000000000000e+02,7.600452900000000227e+02
4.630000000000000000e+02,7.605914900000000216e+02
4.640000000000000000e+02,7.611342200000000275e+02
4.650000000000000000e+02,7.616735200000000532e+02
4.660000000000000000e+02,7.622092900000000100e+02
4.670000000000000000e+02,7.627417000000000371e+02
4.680000000000000000e+02,7.632706299999999828e+02
4.690000000000000000e+02,7.637961999999999989e+02
4.700000000000000000e+02,7.643183599999999842e+02
4.710000000000000000e+02,7.648372200000000021e+02
4.720000000000000000e+02,7.653527199999999766e+02
4.730000000000000000e+02,7.658649299999999585e+02
4.740000000000000000e+02,7.663738399999999729e+02
4.750000000000000000e+02,7.668795199999999568e+02
4.760000000000000000e+02,7.673818999999999733e+02
4.770000000000000000e+02,7.678810399999999845e+02
4.780000000000000000e+02,7.683770100000000411e+02
4.790000000000000000e+02,7.688696899999999914e+02
4.800000000000000000e+02,7.693592499999999745e+02
4.810000000000000000e+02,7.698456999999999653e+02
4.820000000000000000e+02,7.703289200000000392e+02
4.830000000000000000e+02,7.708091399999999567e+02
4.840000000000000000e+02,7.712861900000000333e+02
4.850000000000000000e+02,7.717601300000000037e+02
4.860000000000000000e+02,7.722310199999999440e+02
4.870000000000000000e+02,7.726989099999999553e+02
4.880000000000000000e+02,7.731637600000000248e+02
4.890000000000000000e+02,7.736256100000000515e+02
4.900000000000000000e+02,7.740844100000000481e+02
4.910000000000000000e+02,7.745403400000000147e+02
4.920000000000000000e+02,7.749932300000000396e+02
4.930000000000000000e+02,7.754432399999999461e+02
4.940000000000000000e+02,7.758903199999999742e+02
4.950000000000000000e+02,7.763345299999999725e+02
4.960000000000000000e+02,7.767758199999999533e+02
4.970000000000000000e+02,7.772142300000000432e+02
4.980000000000000000e+02,7.776497799999999643e+02
4.990000000000000000e+02,7.780825800000000072e+02
5.000000000000000000e+02,7.785125699999999824e+02
5.010000000000000000e+02,7.789397000000000162e+02
5.020000000000000000e+02,7.793641400000000203e+02
5.030000000000000000e+02,7.797857699999999568e+02
5.040000000000000000e+02,7.802046500000000151e+02
5.050000000000000000e+02,7.806208500000000186e+02
5.060000000000000000e+02,7.810343000000000302e+02
5.070000000000000000e+02,7.814450699999999870e+02
5.080000000000000000e+02,7.818531500000000278e+02
5.090000000000000000e+02,7.822585400000000391e+02
5.100000000000000000e+02,7.826612499999999955e+02
5.110000000000000000e+02,7.830614000000000487e+02
5.120000000000000000e+02,7.834589200000000346e+02
5.130000000000000000e+02,7.838538800000000037e+02
5.140000000000000000e+02,7.842462199999999939e+02
5.150000000000000000e+02,7.846360499999999547e+02
5.160000000000000000e+02,7.850233200000000124e+02
5.170000000000000000e+02,7.854080800000000409e+02
5.180000000000000000e+02,7.857902800000000525e+02
5.190000000000000000e+02,7.861700399999999718e+02
5.200000000000000000e+02,7.865472999999999502e+02
5.210000000000000000e+02,7.869220599999999877e+02
5.220000000000000000e+02,7.872943699999999581e+02
5.230000000000000000e+02,7.876642500000000382e+02
5.240000000000000000e+02,7.880316800000000512e+02
5.250000000000000000e+02,7.883966699999999719e+02
5.260000000000000000e+02,7.887593399999999519e+02
5.270000000000000000e+02,7.891196300000000292e+02
5.280000000000000000e+02,7.894775399999999763e+02
5.290000000000000000e+02,7.898331299999999828e+02
5.300000000000000000e+02,7.901864000000000487e+02
5.310000000000000000e+02,7.905372899999999845e+02
5.320000000000000000e+02,7.908858599999999797e+02
5.330000000000000000e+02,7.912321799999999712e+02
5.340000000000000000e+02,7.915762300000000096e+02
5.350000000000000000e+02,7.919180300000000443e+02
5.360000000000000000e+02,7.922575699999999870e+02
5.370000000000000000e+02,7.925948499999999513e+02
5.380000000000000000e+02,7.929299300000000130e+02
5.390000000000000000e+02,7.932628200000000334e+02
5.400000000000000000e+02,7.935935100000000375e+02
5.410000000000000000e+02,7.939220599999999877e+02
5.420000000000000000e+02,7.942483499999999594e+02
5.430000000000000000e+02,7.945725700000000415e+02
5.440000000000000000e+02,7.948945899999999938e+02
5.450000000000000000e+02,7.952145400000000564e+02
5.460000000000000000e+02,7.955324100000000271e+02
5.470000000000000000e+02,7.958481399999999439e+02
5.480000000000000000e+02,7.961617999999999711e+02
5.490000000000000000e+02,7.964733899999999949e+02
5.500000000000000000e+02,7.967829000000000406e+02
5.510000000000000000e+02,7.970903899999999567e+02
5.520000000000000000e+02,7.973958699999999453e+02
5.530000000000000000e+02,7.976992800000000443e+02
5.540000000000000000e+02,7.980007299999999759e+02
5.550000000000000000e+02,7.983001699999999801e+02
5.560000000000000000e+02,7.985976600000000190e+02
5.570000000000000000e+02,7.988931300000000419e+02
5.580000000000000000e+02,7.991867099999999482e+02
5.590000000000000000e+02,7.994782699999999522e+02
5.600000000000000000e+02,7.997679399999999532e+02
5.610000000000000000e+02,8.000557300000000396e+02
5.620000000000000000e+02,8.003415499999999838e+02
5.630000000000000000e+02,8.006254900000000134e+02
5.640000000000000000e+02,8.009075900000000274e+02
5.650000000000000000e+02,8.011878100000000131e+02
5.660000000000000000e+02,8.014661300000000210e+02
5.670000000000000000e+02,8.017426100000000133e+02
5.680000000000000000e+02,8.020173300000000154e+02
5.690000000000000000e+02,8.022901600000000144e+02
5.700000000000000000e+02,8.025612200000000485e+02
5.710000000000000000e+02,8.028304399999999532e+02
5.720000000000000000e+02,8.030979599999999436e+02
5.730000000000000000e+02,8.033635900000000447e+02
5.740000000000000000e+02,8.036275000000000546e+02
5.750000000000000000e+02,8.038897100000000364e+02
5.760000000000000000e+02,8.041500899999999774e+02
5.770000000000000000e+02,8.044088100000000168e+02
5.780000000000000000e+02,8.046657699999999522e+02
5.790000000000000000e+02,8.049210199999999986e+02
5.800000000000000000e+02,8.051746200000000044e+02
5.810000000000000000e+02,8.054264500000000453e+02
5.820000000000000000e+02,8.056766999999999825e+02
5.830000000000000000e+02,8.059252300000000560e+02
5.840000000000000000e+02,8.061721199999999499e+02
5.850000000000000000e+02,8.064173600000000306e+02
5.860000000000000000e+02,8.066609499999999571e+02
5.870000000000000000e+02,8.069029500000000326e+02
5.880000000000000000e+02,8.071433700000000044e+02
5.890000000000000000e+02,8.073821400000000494e+02
5.900000000000000000e+02,8.076193200000000161e+02
5.910000000000000000e+02,8.078549199999999928e+02
5.920000000000000000e+02,8.080889300000000048e+02
5.930000000000000000e+02,8.083214100000000144e+02
5.940000000000000000e+02,8.085523699999999963e+02
5.950000000000000000e+02,8.087817400000000134e+02
5.960000000000000000e+02,8.090095800000000281e+02
5.970000000000000000e+02,8.092359000000000151e+02
5.980000000000000000e+02,8.094607499999999618e+02
5.990000000000000000e+02,8.096840799999999945e+02