# Time [s], Temperature [C]
1.000000000000000000e+00,2.500000000000000000e+01
2.000000000000000000e+00,2.500000000000000000e+01
3.000000000000000000e+00,2.500000000000000000e+01
4.000000000000000000e+00,2.500000000000000000e+01
5.000000000000000000e+00,2.500000199999999850e+01
6.000000000000000000e+00,2.500000599999999906e+01
7.000000000000000000e+00,2.500002500000000083e+01
8.000000000000000000e+00,2.500008400000000108e+01
9.000000000000000000e+00,2.500024399999999858e+01
1.000000000000000000e+01,2.500062199999999990e+01
1.100000000000000000e+01,2.500140800000000141e+01
1.200000000000000000e+01,2.500289300000000026e+01
1.300000000000000000e+01,2.500546800000000047e+01
1.400000000000000000e+01,2.500962099999999921e+01
1.500000000000000000e+01,2.501592399999999827e+01
1.600000000000000000e+01,2.502501099999999923e+01
1.700000000000000000e+01,2.503755999999999915e+01
1.800000000000000000e+01,2.505425599999999875e+01
1.900000000000000000e+01,2.507579000000000136e+01
2.000000000000000000e+01,2.510282700000000133e+01
2.100000000000000000e+01,2.513599200000000167e+01
2.200000000000000000e+01,2.517587100000000078e+01
2.300000000000000000e+01,2.522298999999999936e+01
2.400000000000000000e+01,2.527782600000000102e+01
2.500000000000000000e+01,2.534079399999999893e+01
2.600000000000000000e+01,2.541224700000000070e+01
2.700000000000000000e+01,2.549248899999999907e+01
2.800000000000000000e+01,2.558176200000000122e+01
2.900000000000000000e+01,2.568026400000000109e+01
3.000000000000000000e+01,2.578813699999999898e+01
3.100000000000000000e+01,2.590549100000000138e+01
3.200000000000000000e+01,2.603238500000000144e+01
3.300000000000000000e+01,2.616884399999999999e+01
3.400000000000000000e+01,2.631486500000000106e+01
3.500000000000000000e+01,2.647041099999999858e+01
3.600000000000000000e+01,2.663542400000000043e+01
3.700000000000000000e+01,2.680981799999999993e+01
3.800000000000000000e+01,2.699348799999999926e+01
3.900000000000000000e+01,2.718632099999999951e+01
4.000000000000000000e+01,2.738817399999999935e+01
4.100000000000000000e+01,2.759890400000000099e+01
4.200000000000000000e+01,2.781834800000000030e+01
4.300000000000000000e+01,2.804634499999999875e+01
4.400000000000000000e+01,2.828272099999999867e+01
4.500000000000000000e+01,2.852728799999999865e+01
4.600000000000000000e+01,2.877986699999999942e+01
4.700000000000000000e+01,2.904027400000000014e+01
4.800000000000000000e+01,2.930830600000000175e+01
4.900000000000000000e+01,2.958378199999999936e+01
5.000000000000000000e+01,2.986651399999999867e+01
5.100000000000000000e+01,3.015630000000000166e+01
5.200000000000000000e+01,3.045294799999999924e+01
5.300000000000000000e+01,3.075627100000000169e+01
5.400000000000000000e+01,3.106608400000000003e+01
5.500000000000000000e+01,3.138219099999999884e+01
5.600000000000000000e+01,3.170441399999999987e+01
5.700000000000000000e+01,3.203257399999999677e+01
5.800000000000000000e+01,3.236647800000000075e+01
5.900000000000000000e+01,3.270596299999999701e+01
6.000000000000000000e+01,3.305084599999999995e+01
6.100000000000000000e+01,3.340095500000000328e+01
6.200000000000000000e+01,3.375613400000000297e+01
6.300000000000000000e+01,3.411621499999999685e+01
6.400000000000000000e+01,3.448104099999999761e+01
6.500000000000000000e+01,3.485045199999999710e+01
6.600000000000000000e+01,3.522429300000000296e+01
6.700000000000000000e+01,3.560242099999999965e+01
6.800000000000000000e+01,3.598467999999999734e+01
6.900000000000000000e+01,3.637093699999999785e+01
7.000000000000000000e+01,3.676105100000000192e+01
7.100000000000000000e+01,3.715488799999999969e+01
7.200000000000000000e+01,3.755231500000000011e+01
7.300000000000000000e+01,3.795320499999999697e+01
7.400000000000000000e+01,3.835743300000000033e+01
7.500000000000000000e+01,3.876488100000000259e+01
7.600000000000000000e+01,3.917542600000000164e+01
7.700000000000000000e+01,3.958895900000000267e+01
7.800000000000000000e+01,4.000536699999999968e+01
7.900000000000000000e+01,4.042454099999999784e+01
8.000000000000000000e+01,4.084637500000000188e+01
8.100000000000000000e+01,4.127076699999999931e+01
8.200000000000000000e+01,4.169761299999999693e+01
8.300000000000000000e+01,4.212682300000000168e+01
8.400000000000000000e+01,4.255830000000000268e+01
8.500000000000000000e+01,4.299195100000000025e+01
8.600000000000000000e+01,4.342768900000000087e+01
8.700000000000000000e+01,4.386543999999999954e+01
8.800000000000000000e+01,4.430510300000000257e+01
8.900000000000000000e+01,4.474660500000000241e+01
9.000000000000000000e+01,4.518986100000000050e+01
9.100000000000000000e+01,4.563479999999999848e+01
9.200000000000000000e+01,4.608134499999999889e+01
9.300000000000000000e+01,4.652942300000000131e+01
9.400000000000000000e+01,4.697896599999999978e+01
9.500000000000000000e+01,4.742990499999999798e+01
9.600000000000000000e+01,4.788219099999999884e+01
9.700000000000000000e+01,4.833575100000000191e+01
9.800000000000000000e+01,4.879050800000000265e+01
9.900000000000000000e+01,4.924640699999999782e+01
1.000000000000000000e+02,4.970339200000000091e+01
1.010000000000000000e+02,5.016140399999999744e+01
1.020000000000000000e+02,5.062039899999999903e+01
1.030000000000000000e+02,5.108033400000000057e+01
1.040000000000000000e+02,5.154113799999999657e+01
1.050000000000000000e+02,5.200275400000000303e+01
1.060000000000000000e+02,5.246514499999999970e+01
1.070000000000000000e+02,5.292826099999999911e+01
1.080000000000000000e+02,5.339205900000000327e+01
1.090000000000000000e+02,5.385651399999999711e+01
1.100000000000000000e+02,5.432155999999999807e+01
1.110000000000000000e+02,5.478714800000000196e+01
1.120000000000000000e+02,5.525324200000000019e+01
1.130000000000000000e+02,5.571981000000000250e+01
1.140000000000000000e+02,5.618681699999999779e+01
1.150000000000000000e+02,5.665424000000000149e+01
1.160000000000000000e+02,5.712202099999999660e+01
1.170000000000000000e+02,5.759011799999999681e+01
1.180000000000000000e+02,5.805850999999999829e+01
1.190000000000000000e+02,5.852716399999999908e+01
1.200000000000000000e+02,5.899605199999999883e+01
1.210000000000000000e+02,5.946515999999999735e+01
1.220000000000000000e+02,5.993443700000000263e+01
1.230000000000000000e+02,6.040384300000000195e+01
1.240000000000000000e+02,6.087336299999999767e+01
1.250000000000000000e+02,6.134297200000000316e+01
1.260000000000000000e+02,6.181264500000000339e+01
1.270000000000000000e+02,6.228237200000000229e+01
1.280000000000000000e+02,6.275210200000000071e+01
1.290000000000000000e+02,6.322181700000000149e+01
1.300000000000000000e+02,6.369149399999999872e+01
1.310000000000000000e+02,6.416111800000000187e+01
1.320000000000000000e+02,6.463066899999999748e+01
1.330000000000000000e+02,6.510013600000000622e+01
1.340000000000000000e+02,6.556946600000000558e+01
1.350000000000000000e+02,6.603865799999999808e+01
1.360000000000000000e+02,6.650768999999999664e+01
1.370000000000000000e+02,6.697654699999999650e+01
1.380000000000000000e+02,6.744522100000000364e+01
1.390000000000000000e+02,6.791369600000000162e+01
1.400000000000000000e+02,6.838191999999999382e+01
1.410000000000000000e+02,6.884990700000000174e+01
1.420000000000000000e+02,6.931762700000000166e+01
1.430000000000000000e+02,6.978507199999999955e+01
1.440000000000000000e+02,7.025225100000000111e+01
1.450000000000000000e+02,7.071911599999999964e+01
1.460000000000000000e+02,7.118565399999999954e+01
1.470000000000000000e+02,7.165186300000000585e+01
1.480000000000000000e+02,7.211772200000000055e+01
1.490000000000000000e+02,7.258322099999999466e+01
1.500000000000000000e+02,7.304836299999999483e+01
1.510000000000000000e+02,7.351313799999999787e+01
1.520000000000000000e+02,7.397750899999999774e+01
1.530000000000000000e+02,7.444147499999999695e+01
1.540000000000000000e+02,7.490502200000000244e+01
1.550000000000000000e+02,7.536814099999999428e+01
1.560000000000000000e+02,7.583084100000000660e+01
1.570000000000000000e+02,7.629311400000000276e+01
1.580000000000000000e+02,7.675491300000000194e+01
1.590000000000000000e+02,7.721625500000000386e+01
1.600000000000000000e+02,7.767711599999999805e+01
1.610000000000000000e+02,7.813748900000000219e+01
1.620000000000000000e+02,7.859738199999999608e+01
1.630000000000000000e+02,7.905679299999999898e+01
1.640000000000000000e+02,7.951570900000000108e+01
1.650000000000000000e+02,7.997410600000000613e+01
1.660000000000000000e+02,8.043197600000000591e+01
1.670000000000000000e+02,8.088931999999999789e+01
1.680000000000000000e+02,8.134613799999999628e+01
1.690000000000000000e+02,8.180240600000000484e+01
1.700000000000000000e+02,8.225814800000000560e+01
1.710000000000000000e+02,8.271334099999999978e+01
1.720000000000000000e+02,8.316797599999999591e+01
1.730000000000000000e+02,8.362204699999999491e+01
1.740000000000000000e+02,8.407554600000000278e+01
1.750000000000000000e+02,8.452847300000000530e+01
1.760000000000000000e+02,8.498081999999999425e+01
1.770000000000000000e+02,8.543257900000000404e+01
1.780000000000000000e+02,8.588376599999999428e+01
1.790000000000000000e+02,8.633435799999999460e+01
1.800000000000000000e+02,8.678435500000000502e+01
1.810000000000000000e+02,8.723374900000000309e+01
1.820000000000000000e+02,8.768253300000000650e+01
1.830000000000000000e+02,8.813070700000000102e+01
1.840000000000000000e+02,8.857826199999999517e+01
1.850000000000000000e+02,8.902520800000000634e+01
1.860000000000000000e+02,8.947154199999999946e+01
1.870000000000000000e+02,8.991725200000000484e+01
1.880000000000000000e+02,9.036232800000000509e+01
1.890000000000000000e+02,9.080677799999999422e+01
1.900000000000000000e+02,9.125058699999999590e+01
1.910000000000000000e+02,9.169376400000000160e+01
1.920000000000000000e+02,9.213629899999999395e+01
1.930000000000000000e+02,9.257819399999999632e+01
1.940000000000000000e+02,9.301944000000000301e+01
1.950000000000000000e+02,9.346005200000000457e+01
1.960000000000000000e+02,9.390000200000000063e+01
1.970000000000000000e+02,9.433930200000000355e+01
1.980000000000000000e+02,9.477795399999999404e+01
1.990000000000000000e+02,9.521594199999999830e+01
2.000000000000000000e+02,9.565327499999999361e+01
2.010000000000000000e+02,9.608994300000000521e+01
2.020000000000000000e+02,9.652594799999999964e+01
2.030000000000000000e+02,9.696128799999999615e+01
2.040000000000000000e+02,9.739595799999999315e+01
2.050000000000000000e+02,9.782996400000000392e+01
2.060000000000000000e+02,9.826330600000000004e+01
2.070000000000000000e+02,9.869597600000000170e+01
2.080000000000000000e+02,9.912796799999999564e+01
2.090000000000000000e+02,9.955928799999999512e+01
2.100000000000000000e+02,9.998992900000000361e+01
2.110000000000000000e+02,1.004198999999999984e+02
2.120000000000000000e+02,1.008491800000000040e+02
2.130000000000000000e+02,1.012777899999999960e+02
2.140000000000000000e+02,1.017057099999999963e+02
2.150000000000000000e+02,1.021329599999999971e+02
2.160000000000000000e+02,1.025595100000000031e+02
2.170000000000000000e+02,1.029853800000000064e+02
2.180000000000000000e+02,1.034105700000000070e+02
2.190000000000000000e+02,1.038350700000000018e+02
2.200000000000000000e+02,1.042588899999999938e+02
2.210000000000000000e+02,1.046820100000000053e+02
2.220000000000000000e+02,1.051044600000000031e+02
2.230000000000000000e+02,1.055262100000000061e+02
2.240000000000000000e+02,1.059472700000000032e+02
2.250000000000000000e+02,1.063676499999999976e+02
2.260000000000000000e+02,1.067873199999999940e+02
2.270000000000000000e+02,1.072063100000000020e+02
2.280000000000000000e+02,1.076246000000000009e+02
2.290000000000000000e+02,1.080422099999999972e+02
2.300000000000000000e+02,1.084591099999999955e+02
2.310000000000000000e+02,1.088753300000000053e+02
2.320000000000000000e+02,1.092908500000000060e+02
2.330000000000000000e+02,1.097056699999999978e+02
2.340000000000000000e+02,1.101197999999999979e+02
2.350000000000000000e+02,1.105332300000000032e+02
2.360000000000000000e+02,1.109459700000000026e+02
2.370000000000000000e+02,1.113580199999999962e+02
2.380000000000000000e+02,1.117693600000000060e+02
2.390000000000000000e+02,1.121800199999999990e+02
2.400000000000000000e+02,1.125899699999999939e+02
2.410000000000000000e+02,1.129992199999999940e+02
2.420000000000000000e+02,1.134077800000000025e+02
2.430000000000000000e+02,1.138156500000000051e+02
2.440000000000000000e+02,1.142228199999999987e+02
2.450000000000000000e+02,1.146292899999999975e+02
2.460000000000000000e+02,1.150350600000000014e+02
2.470000000000000000e+02,1.154401299999999964e+02
2.480000000000000000e+02,1.158445099999999996e+02
2.490000000000000000e+02,1.162481899999999939e+02
2.500000000000000000e+02,1.166511799999999965e+02
2.510000000000000000e+02,1.170534700000000043e+02
2.520000000000000000e+02,1.174550600000000031e+02
2.530000000000000000e+02,1.178559500000000071e+02
2.540000000000000000e+02,1.182561500000000052e+02
2.550000000000000000e+02,1.186556499999999943e+02
2.560000000000000000e+02,1.190544600000000059e+02
2.570000000000000000e+02,1.194525699999999944e+02
2.580000000000000000e+02,1.198499800000000022e+02
2.590000000000000000e+02,1.202467000000000041e+02
2.600000000000000000e+02,1.206427199999999971e+02
2.610000000000000000e+02,1.210380499999999984e+02
2.620000000000000000e+02,1.214326899999999938e+02
2.630000000000000000e+02,1.218266200000000055e+02
2.640000000000000000e+02,1.222198700000000002e+02
2.650000000000000000e+02,1.226124300000000034e+02
2.660000000000000000e+02,1.230042799999999943e+02
2.670000000000000000e+02,1.233954499999999967e+02
2.680000000000000000e+02,1.237859100000000012e+02
2.690000000000000000e+02,1.241756900000000030e+02
2.700000000000000000e+02,1.245647699999999958e+02
2.710000000000000000e+02,1.249531599999999969e+02
2.720000000000000000e+02,1.253408600000000064e+02
2.730000000000000000e+02,1.257278699999999958e+02
2.740000000000000000e+02,1.261141800000000046e+02
2.750000000000000000e+02,1.264997999999999934e+02
2.760000000000000000e+02,1.268847399999999936e+02
2.770000000000000000e+02,1.272689799999999991e+02
2.780000000000000000e+02,1.276525400000000019e+02
2.790000000000000000e+02,1.280354199999999878e+02
2.800000000000000000e+02,1.284175899999999899e+02
2.810000000000000000e+02,1.287990700000000004e+02
2.820000000000000000e+02,1.291798900000000003e+02
2.830000000000000000e+02,1.295599799999999959e+02
2.840000000000000000e+02,1.299394100000000094e+02
2.850000000000000000e+02,1.303181500000000028e+02
2.860000000000000000e+02,1.306962000000000046e+02
2.870000000000000000e+02,1.310735599999999863e+02
2.880000000000000000e+02,1.314502400000000080e+02
2.890000000000000000e+02,1.318262300000000096e+02
2.900000000000000000e+02,1.322015399999999943e+02
2.910000000000000000e+02,1.325761699999999905e+02
2.920000000000000000e+02,1.329501199999999983e+02
2.930000000000000000e+02,1.333233799999999860e+02
2.940000000000000000e+02,1.336959699999999884e+02
2.950000000000000000e+02,1.340678699999999992e+02
2.960000000000000000e+02,1.344390899999999931e+02
2.970000000000000000e+02,1.348096299999999985e+02
2.980000000000000000e+02,1.351794899999999870e+02
2.990000000000000000e+02,1.355486600000000124e+02
3.000000000000000000e+02,1.359171599999999955e+02
3.010000000000000000e+02,1.362849699999999871e+02
3.020000000000000000e+02,1.366521299999999997e+02
3.030000000000000000e+02,1.370185899999999890e+02
3.040000000000000000e+02,1.373843799999999931e+02
3.050000000000000000e+02,1.377495000000000118e+02
3.060000000000000000e+02,1.381139400000000137e+02
3.070000000000000000e+02,1.384776899999999955e+02
3.080000000000000000e+02,1.388407899999999984e+02
3.090000000000000000e+02,1.392032000000000096e+02
3.100000000000000000e+02,1.395649400000000071e+02
3.110000000000000000e+02,1.399260099999999909e+02
3.120000000000000000e+02,1.402864199999999926e+02
3.130000000000000000e+02,1.406461500000000058e+02
3.140000000000000000e+02,1.410052000000000021e+02
3.150000000000000000e+02,1.413635899999999879e+02
3.160000000000000000e+02,1.417213000000000136e+02
3.170000000000000000e+02,1.420783399999999972e+02
3.180000000000000000e+02,1.424347199999999987e+02
3.190000000000000000e+02,1.427904399999999896e+02
3.200000000000000000e+02,1.431454899999999952e+02
3.210000000000000000e+02,1.434998799999999903e+02
3.220000000000000000e+02,1.438535899999999970e+02
3.230000000000000000e+02,1.442066299999999899e+02
3.240000000000000000e+02,1.445590100000000007e+02
3.250000000000000000e+02,1.449107400000000041e+02
3.260000000000000000e+02,1.452617999999999938e+02
3.270000000000000000e+02,1.456122000000000014e+02
3.280000000000000000e+02,1.459619299999999953e+02
3.290000000000000000e+02,1.463110000000000070e+02
3.300000000000000000e+02,1.466594100000000083e+02
3.310000000000000000e+02,1.470071599999999989e+02
3.320000000000000000e+02,1.473542500000000075e+02
3.330000000000000000e+02,1.477007000000000119e+02
3.340000000000000000e+02,1.480464800000000025e+02
3.350000000000000000e+02,1.483916000000000111e+02
3.360000000000000000e+02,1.487360700000000122e+02
3.370000000000000000e+02,1.490798800000000028e+02
3.380000000000000000e+02,1.494230200000000082e+02
3.390000000000000000e+02,1.497655200000000093e+02
3.400000000000000000e+02,1.501073599999999999e+02
3.410000000000000000e+02,1.504485599999999863e+02
3.420000000000000000e+02,1.507891099999999938e+02
3.430000000000000000e+02,1.511289999999999907e+02
3.440000000000000000e+02,1.514682300000000055e+02
3.450000000000000000e+02,1.518068199999999877e+02
3.460000000000000000e+02,1.521447599999999909e+02
3.470000000000000000e+02,1.524820400000000120e+02
3.480000000000000000e+02,1.528187000000000069e+02
3.490000000000000000e+02,1.531546800000000133e+02
3.500000000000000000e+02,1.534900399999999934e+02
3.510000000000000000e+02,1.538247200000000134e+02
3.520000000000000000e+02,1.541587800000000072e+02
3.530000000000000000e+02,1.544921999999999969e+02
3.540000000000000000e+02,1.548249700000000075e+02
3.550000000000000000e+02,1.551570900000000108e+02
3.560000000000000000e+02,1.554885700000000099e+02
3.570000000000000000e+02,1.558194000000000017e+02
3.580000000000000000e+02,1.561495999999999924e+02
3.590000000000000000e+02,1.564791600000000074e+02
3.600000000000000000e+02,1.568080899999999929e+02
3.610000000000000000e+02,1.571363499999999931e+02
3.620000000000000000e+02,1.574639999999999986e+02
3.630000000000000000e+02,1.577909999999999968e+02
3.640000000000000000e+02,1.581173699999999940e+02
3.650000000000000000e+02,1.584430999999999869e+02
3.660000000000000000e+02,1.587681900000000041e+02
3.670000000000000000e+02,1.590926499999999919e+02
3.680000000000000000e+02,1.594164700000000039e+02
3.690000000000000000e+02,1.597396699999999896e+02
3.700000000000000000e+02,1.600622299999999996e+02
3.710000000000000000e+02,1.603841600000000085e+02
3.720000000000000000e+02,1.607054599999999880e+02
3.730000000000000000e+02,1.610261199999999917e+02
3.740000000000000000e+02,1.613461599999999976e+02
3.750000000000000000e+02,1.616655700000000024e+02
3.760000000000000000e+02,1.619843400000000031e+02
3.770000000000000000e+02,1.623025100000000123e+02
3.780000000000000000e+02,1.626200300000000141e+02
3.790000000000000000e+02,1.629369199999999864e+02
3.800000000000000000e+02,1.632531999999999925e+02
3.810000000000000000e+02,1.635688499999999976e+02
3.820000000000000000e+02,1.638838700000000017e+02
3.830000000000000000e+02,1.641982700000000079e+02
3.840000000000000000e+02,1.645120499999999879e+02
3.850000000000000000e+02,1.648252099999999984e+02
3.860000000000000000e+02,1.651377599999999859e+02
3.870000000000000000e+02,1.654496599999999944e+02
3.880000000000000000e+02,1.657609600000000114e+02
3.890000000000000000e+02,1.660716400000000021e+02
3.900000000000000000e+02,1.663816999999999950e+02
3.910000000000000000e+02,1.666911499999999933e+02
3.920000000000000000e+02,1.669999699999999905e+02
3.930000000000000000e+02,1.673081799999999930e+02
3.940000000000000000e+02,1.676157699999999977e+02
3.950000000000000000e+02,1.679227600000000109e+02
3.960000000000000000e+02,1.682291299999999978e+02
3.970000000000000000e+02,1.685348799999999869e+02
3.980000000000000000e+02,1.688400100000000066e+02
3.990000000000000000e+02,1.691445500000000095e+02
4.000000000000000000e+02,1.694484699999999862e+02
4.010000000000000000e+02,1.697517899999999997e+02
4.020000000000000000e+02,1.700544700000000091e+02
4.030000000000000000e+02,1.703565700000000049e+02
4.040000000000000000e+02,1.706580500000000029e+02
4.050000000000000000e+02,1.709589400000000126e+02
4.060000000000000000e+02,1.712591999999999928e+02
4.070000000000000000e+02,1.715588700000000131e+02
4.080000000000000000e+02,1.718579300000000103e+02
4.090000000000000000e+02,1.721563899999999876e+02
4.100000000000000000e+02,1.724542399999999986e+02
4.110000000000000000e+02,1.727514999999999930e+02
4.120000000000000000e+02,1.730481399999999894e+02
4.130000000000000000e+02,1.733441899999999976e+02
4.140000000000000000e+02,1.736396300000000110e+02
4.150000000000000000e+02,1.739344800000000077e+02
4.160000000000000000e+02,1.742287300000000130e+02
4.170000000000000000e+02,1.745223799999999983e+02
4.180000000000000000e+02,1.748154299999999921e+02
4.190000000000000000e+02,1.751078899999999976e+02
4.200000000000000000e+02,1.753997500000000116e+02
4.210000000000000000e+02,1.756910200000000088e+02
4.220000000000000000e+02,1.759816899999999862e+02
4.230000000000000000e+02,1.762717700000000036e+02
4.240000000000000000e+02,1.765612600000000043e+02
4.250000000000000000e+02,1.768501400000000103e+02
4.260000000000000000e+02,1.771384400000000028e+02
4.270000000000000000e+02,1.774261600000000101e+02
4.280000000000000000e+02,1.777132699999999943e+02
4.290000000000000000e+02,1.779997999999999934e+02
4.300000000000000000e+02,1.782857500000000073e+02
4.310000000000000000e+02,1.785711100000000044e+02
4.320000000000000000e+02,1.788558700000000101e+02
4.330000000000000000e+02,1.791400500000000022e+02
4.340000000000000000e+02,1.794236500000000092e+02
4.350000000000000000e+02,1.797066499999999962e+02
4.360000000000000000e+02,1.799890900000000045e+02
4.370000000000000000e+02,1.802709399999999960e+02
4.380000000000000000e+02,1.805521899999999960e+02
4.390000000000000000e+02,1.808328700000000140e+02
4.400000000000000000e+02,1.811129599999999868e+02
4.410000000000000000e+02,1.813924700000000030e+02
4.420000000000000000e+02,1.816714200000000119e+02
4.430000000000000000e+02,1.819497700000000009e+02
4.440000000000000000e+02,1.822275500000000079e+02
4.450000000000000000e+02,1.825047500000000014e+02
4.460000000000000000e+02,1.827813700000000097e+02
4.470000000000000000e+02,1.830574300000000108e+02
4.480000000000000000e+02,1.833329200000000014e+02
4.490000000000000000e+02,1.836077999999999975e+02
4.500000000000000000e+02,1.838821399999999926e+02
4.510000000000000000e+02,1.841559000000000026e+02
4.520000000000000000e+02,1.844290799999999990e+02
4.530000000000000000e+02,1.847016900000000135e+02
4.540000000000000000e+02,1.849737199999999859e+02
4.550000000000000000e+02,1.852451900000000080e+02
4.560000000000000000e+02,1.855160999999999945e+02
4.570000000000000000e+02,1.857864199999999926e+02
4.580000000000000000e+02,1.860561999999999898e+02
4.590000000000000000e+02,1.863253899999999987e+02
4.600000000000000000e+02,1.865940200000000004e+02
4.610000000000000000e+02,1.868620899999999949e+02
4.620000000000000000e+02,1.871295900000000074e+02
4.630000000000000000e+02,1.873965300000000127e+02
4.640000000000000000e+02,1.876629000000000076e+02
4.650000000000000000e+02,1.879287099999999953e+02
4.660000000000000000e+02,1.881939500000000010e+02
4.670000000000000000e+02,1.884586500000000058e+02
4.680000000000000000e+02,1.887227800000000002e+02
4.690000000000000000e+02,1.889863400000000127e+02
4.700000000000000000e+02,1.892493599999999958e+02
4.710000000000000000e+02,1.895118099999999970e+02
4.720000000000000000e+02,1.897736999999999910e+02
4.730000000000000000e+02,1.900350300000000061e+02
4.740000000000000000e+02,1.902958199999999920e+02
4.750000000000000000e+02,1.905560499999999990e+02
4.760000000000000000e+02,1.908157199999999989e+02
4.770000000000000000e+02,1.910748399999999947e+02
4.780000000000000000e+02,1.913334000000000117e+02
4.790000000000000000e+02,1.915914199999999994e+02
4.800000000000000000e+02,1.918488900000000115e+02
4.810000000000000000e+02,1.921057999999999879e+02
4.820000000000000000e+02,1.923621699999999919e+02
4.830000000000000000e+02,1.926179799999999886e+02
4.840000000000000000e+02,1.928732500000000130e+02
4.850000000000000000e+02,1.931279800000000080e+02
4.860000000000000000e+02,1.933821399999999926e+02
4.870000000000000000e+02,1.936357700000000079e+02
4.880000000000000000e+02,1.938888499999999908e+02
4.890000000000000000e+02,1.941413900000000012e+02
4.900000000000000000e+02,1.943933900000000108e+02
4.910000000000000000e+02,1.946448399999999879e+02
4.920000000000000000e+02,1.948957499999999925e+02
4.930000000000000000e+02,1.951461199999999963e+02
4.940000000000000000e+02,1.953959399999999960e+02
4.950000000000000000e+02,1.956452299999999980e+02
4.960000000000000000e+02,1.958939799999999991e+02
4.970000000000000000e+02,1.961422000000000025e+02
4.980000000000000000e+02,1.963898599999999988e+02
4.990000000000000000e+02,1.966370100000000036e+02
5.000000000000000000e+02,1.968836100000000044e+02
5.010000000000000000e+02,1.971296800000000076e+02
5.020000000000000000e+02,1.973752100000000098e+02
5.030000000000000000e+02,1.976202099999999859e+02
5.040000000000000000e+02,1.978646899999999960e+02
5.050000000000000000e+02,1.981086099999999988e+02
5.060000000000000000e+02,1.983520200000000102e+02
5.070000000000000000e+02,1.985948899999999924e+02
5.080000000000000000e+02,1.988372300000000052e+02
5.090000000000000000e+02,1.990790599999999984e+02
5.100000000000000000e+02,1.993203399999999874e+02
5.110000000000000000e+02,1.995611000000000104e+02
5.120000000000000000e+02,1.998013300000000072e+02
5.130000000000000000e+02,2.000410500000000127e+02
5.140000000000000000e+02,2.002802299999999889e+02
5.150000000000000000e+02,2.005188899999999990e+02
5.160000000000000000e+02,2.007570299999999861e+02
5.170000000000000000e+02,2.009946400000000040e+02
5.180000000000000000e+02,2.012317400000000021e+02
5.190000000000000000e+02,2.014683100000000024e+02
5.200000000000000000e+02,2.017043600000000083e+02
5.210000000000000000e+02,2.019398999999999944e+02
5.220000000000000000e+02,2.021749100000000112e+02
5.230000000000000000e+02,2.024094100000000083e+02
5.240000000000000000e+02,2.026434000000000140e+02
5.250000000000000000e+02,2.028768599999999935e+02
5.260000000000000000e+02,2.031098200000000134e+02
5.270000000000000000e+02,2.033422500000000070e+02
5.280000000000000000e+02,2.035741700000000094e+02
5.290000000000000000e+02,2.038055899999999951e+02
5.300000000000000000e+02,2.040364800000000116e+02
5.310000000000000000e+02,2.042668600000000083e+02
5.320000000000000000e+02,2.044967499999999916e+02
5.330000000000000000e+02,2.047261200000000088e+02
5.340000000000000000e+02,2.049549700000000030e+02
5.350000000000000000e+02,2.051833200000000090e+02
5.360000000000000000e+02,2.054111599999999953e+02
5.370000000000000000e+02,2.056384999999999934e+02
5.380000000000000000e+02,2.058653400000000033e+02
5.390000000000000000e+02,2.060916699999999935e+02
5.400000000000000000e+02,2.063174999999999955e+02
5.410000000000000000e+02,2.065428200000000061e+02
5.420000000000000000e+02,2.067676400000000001e+02
5.430000000000000000e+02,2.069919600000000059e+02
5.440000000000000000e+02,2.072157899999999984e+02
5.450000000000000000e+02,2.074390999999999963e+02
5.460000000000000000e+02,2.076619300000000123e+02
5.470000000000000000e+02,2.078842500000000086e+02
5.480000000000000000e+02,2.081060799999999915e+02
5.490000000000000000e+02,2.083274099999999862e+02
5.500000000000000000e+02,2.085482499999999959e+02
5.510000000000000000e+02,2.087685899999999890e+02
5.520000000000000000e+02,2.089884299999999939e+02
5.530000000000000000e+02,2.092077899999999886e+02
5.540000000000000000e+02,2.094266499999999951e+02
5.550000000000000000e+02,2.096450199999999882e+02
5.560000000000000000e+02,2.098628999999999962e+02
5.570000000000000000e+02,2.100802899999999909e+02
5.580000000000000000e+02,2.102972000000000037e+02
5.590000000000000000e+02,2.105136099999999999e+02
5.600000000000000000e+02,2.107295499999999890e+02
5.610000000000000000e+02,2.109449899999999900e+02
5.620000000000000000e+02,2.111599400000000060e+02
5.630000000000000000e+02,2.113744199999999864e+02
5.640000000000000000e+02,2.115884100000000103e+02
5.650000000000000000e+02,2.118019099999999924e+02
5.660000000000000000e+02,2.120149399999999957e+02
5.670000000000000000e+02,2.122274800000000141e+02
5.680000000000000000e+02,2.124395399999999938e+02
5.690000000000000000e+02,2.126511399999999981e+02
5.700000000000000000e+02,2.128622400000000141e+02
5.710000000000000000e+02,2.130728799999999978e+02
5.720000000000000000e+02,2.132830399999999997e+02
5.730000000000000000e+02,2.134927099999999882e+02
5.740000000000000000e+02,2.137018999999999949e+02
5.750000000000000000e+02,2.139106400000000008e+02
5.760000000000000000e+02,2.141188999999999965e+02
5.770000000000000000e+02,2.143266800000000103e+02
5.780000000000000000e+02,2.145339800000000139e+02
5.790000000000000000e+02,2.147408299999999883e+02
5.800000000000000000e+02,2.149471900000000062e+02
5.810000000000000000e+02,2.151531099999999981e+02
5.820000000000000000e+02,2.153585400000000050e+02
5.830000000000000000e+02,2.155635100000000079e+02
5.840000000000000000e+02,2.157680100000000039e+02
5.850000000000000000e+02,2.159720299999999895e+02
5.860000000000000000e+02,2.161756000000000029e+02
5.870000000000000000e+02,2.163787100000000123e+02
5.880000000000000000e+02,2.165813599999999894e+02
5.890000000000000000e+02,2.167835399999999879e+02
5.900000000000000000e+02,2.169852600000000109e+02
5.910000000000000000e+02,2.171865099999999984e+02
5.920000000000000000e+02,2.173873100000000136e+02
5.930000000000000000e+02,2.175876599999999996e+02
5.940000000000000000e+02,2.177875400000000070e+02
5.950000000000000000e+02,2.179869700000000137e+02
5.960000000000000000e+02,2.181859300000000133e+02
5.970000000000000000e+02,2.183844499999999869e+02
5.980000000000000000e+02,2.185825000000000102e+02
5.990000000000000000e+02,2.187801200000000108e+02