,10kW,60kW,100kW
FTBT,0.019716537846666667,0.007255777683333315,0.01286080194166668
TGA,0.010705595270000002,0.0034493361666666877,0.0030589841583333467
BT,0.07933536286666668,0.015503101433333312,0.020584234358333307
TGABT,0.008274079813333333,0.00780260048333336,0.008487959508333332
