,10kW,60kW,100kW
TGADSC,0.004786016872764507,0.09238000601883571,0.10377535221340721
2Mass,0.00835784958545591,0.09244206598329914,0.10400745195647665
2MassTGA,0.0022717938498333745,0.09218692610555407,0.10549465810690106
3Mass,0.00832475968543514,0.09246638821103922,0.1039995531001767
FTBT,0.0030112390454557227,0.09244791379842694,0.10396865487796611
TGA,0.005545182623927785,0.09231666238680661,0.10372064895110772
