,10kW,60kW,100kW
TGADSC,0.0011941815737182002,0.03632739426655553,0.042103926036192604
2Mass,0.0020644488336539145,0.03629602645759364,0.042099212230829804
2MassTGA,0.0005555398645767105,0.036331913902710476,0.04274494731330845
3Mass,0.002056884813583675,0.03631712170637418,0.042099633836035134
FTBT,0.0008621627835929787,0.03632979161628349,0.042105656306616
TGA,0.0007872437995029662,0.03632857359683454,0.04210505556713303
