,10kW,60kW,100kW
TGADSC,0.0011112061288920836,0.035227689331333016,0.04098135848965245
2Mass,0.001847175178761539,0.035292403634289427,0.04105536547061701
2MassTGA,0.0004870849472831672,0.03517543723181204,0.04219923355085573
3Mass,0.0018556267285893056,0.03531369937490706,0.04106424503540121
FTBT,0.0008023817645885861,0.03520268023350789,0.04094756677421486
TGA,0.00043835085873861017,0.035209906179210326,0.040959162346305374
