# Time [s], Temperature [C]
1.000000000000000000e+00,2.500000000000000000e+01
2.000000000000000000e+00,2.500000000000000000e+01
3.000000000000000000e+00,2.500000000000000000e+01
4.000000000000000000e+00,2.500000000000000000e+01
5.000000000000000000e+00,2.500000599999999906e+01
6.000000000000000000e+00,2.500002699999999933e+01
7.000000000000000000e+00,2.500011599999999845e+01
8.000000000000000000e+00,2.500040600000000168e+01
9.000000000000000000e+00,2.500120700000000085e+01
1.000000000000000000e+01,2.500312600000000174e+01
1.100000000000000000e+01,2.500719499999999940e+01
1.200000000000000000e+01,2.501498799999999889e+01
1.300000000000000000e+01,2.502867099999999922e+01
1.400000000000000000e+01,2.505099500000000035e+01
1.500000000000000000e+01,2.508522400000000019e+01
1.600000000000000000e+01,2.513501899999999978e+01
1.700000000000000000e+01,2.520431299999999908e+01
1.800000000000000000e+01,2.529716900000000024e+01
1.900000000000000000e+01,2.541765200000000036e+01
2.000000000000000000e+01,2.556973299999999938e+01
2.100000000000000000e+01,2.575717399999999913e+01
2.200000000000000000e+01,2.598349400000000031e+01
2.300000000000000000e+01,2.625191099999999977e+01
2.400000000000000000e+01,2.656528899999999993e+01
2.500000000000000000e+01,2.692616800000000055e+01
2.600000000000000000e+01,2.733673100000000034e+01
2.700000000000000000e+01,2.779880100000000098e+01
2.800000000000000000e+01,2.831389599999999973e+01
2.900000000000000000e+01,2.888317500000000138e+01
3.000000000000000000e+01,2.950750899999999888e+01
3.100000000000000000e+01,3.018747899999999973e+01
3.200000000000000000e+01,3.092345200000000105e+01
3.300000000000000000e+01,3.171555899999999895e+01
3.400000000000000000e+01,3.256367500000000348e+01
3.500000000000000000e+01,3.346749499999999955e+01
3.600000000000000000e+01,3.442661700000000025e+01
3.700000000000000000e+01,3.544037200000000354e+01
3.800000000000000000e+01,3.650808299999999917e+01
3.900000000000000000e+01,3.762886799999999710e+01
4.000000000000000000e+01,3.880179600000000306e+01
4.100000000000000000e+01,4.002581800000000101e+01
4.200000000000000000e+01,4.129983899999999863e+01
4.300000000000000000e+01,4.262267700000000303e+01
4.400000000000000000e+01,4.399314499999999839e+01
4.500000000000000000e+01,4.540991999999999962e+01
4.600000000000000000e+01,4.687175799999999981e+01
4.700000000000000000e+01,4.837729999999999819e+01
4.800000000000000000e+01,4.992520499999999828e+01
4.900000000000000000e+01,5.151414900000000330e+01
5.000000000000000000e+01,5.314271899999999960e+01
5.100000000000000000e+01,5.480954700000000201e+01
5.200000000000000000e+01,5.651316099999999665e+01
5.300000000000000000e+01,5.825218600000000180e+01
5.400000000000000000e+01,6.002532200000000273e+01
5.500000000000000000e+01,6.183101299999999867e+01
5.600000000000000000e+01,6.366796899999999937e+01
5.700000000000000000e+01,6.553472100000000466e+01
5.800000000000000000e+01,6.743000000000000682e+01
5.900000000000000000e+01,6.935240199999999788e+01
6.000000000000000000e+01,7.130056000000000438e+01
6.100000000000000000e+01,7.327318599999999549e+01
6.200000000000000000e+01,7.526897400000000005e+01
6.300000000000000000e+01,7.728662900000000491e+01
6.400000000000000000e+01,7.932486000000000104e+01
6.500000000000000000e+01,8.138246200000000385e+01
6.600000000000000000e+01,8.345820600000000411e+01
6.700000000000000000e+01,8.555098700000000633e+01
6.800000000000000000e+01,8.765968300000000113e+01
6.900000000000000000e+01,8.978308900000000392e+01
7.000000000000000000e+01,9.192020399999999825e+01
7.100000000000000000e+01,9.407009100000000501e+01
7.200000000000000000e+01,9.623160599999999931e+01
7.300000000000000000e+01,9.840389299999999650e+01
7.400000000000000000e+01,1.005860799999999955e+02
7.500000000000000000e+01,1.027772400000000061e+02
7.600000000000000000e+01,1.049766500000000065e+02
7.700000000000000000e+01,1.071834099999999950e+02
7.800000000000000000e+01,1.093969000000000023e+02
7.900000000000000000e+01,1.116162800000000033e+02
8.000000000000000000e+01,1.138410599999999988e+02
8.100000000000000000e+01,1.160705399999999941e+02
8.200000000000000000e+01,1.183040199999999942e+02
8.300000000000000000e+01,1.205411000000000001e+02
8.400000000000000000e+01,1.227810599999999965e+02
8.500000000000000000e+01,1.250235399999999970e+02
8.600000000000000000e+01,1.272679899999999975e+02
8.700000000000000000e+01,1.295138399999999876e+02
8.800000000000000000e+01,1.317608299999999986e+02
8.900000000000000000e+01,1.340083500000000072e+02
9.000000000000000000e+01,1.362560599999999909e+02
9.100000000000000000e+01,1.385035399999999868e+02
9.200000000000000000e+01,1.407503199999999879e+02
9.300000000000000000e+01,1.429961999999999875e+02
9.400000000000000000e+01,1.452406300000000101e+02
9.500000000000000000e+01,1.474834400000000016e+02
9.600000000000000000e+01,1.497242099999999994e+02
9.700000000000000000e+01,1.519625699999999995e+02
9.800000000000000000e+01,1.541983500000000049e+02
9.900000000000000000e+01,1.564311199999999928e+02
1.000000000000000000e+02,1.586607500000000073e+02
1.010000000000000000e+02,1.608869300000000067e+02
1.020000000000000000e+02,1.631093600000000094e+02
1.030000000000000000e+02,1.653279300000000092e+02
1.040000000000000000e+02,1.675422700000000020e+02
1.050000000000000000e+02,1.697522999999999911e+02
1.060000000000000000e+02,1.719577299999999980e+02
1.070000000000000000e+02,1.741584599999999909e+02
1.080000000000000000e+02,1.763541700000000105e+02
1.090000000000000000e+02,1.785448199999999872e+02
1.100000000000000000e+02,1.807300700000000120e+02
1.110000000000000000e+02,1.829099300000000028e+02
1.120000000000000000e+02,1.850840599999999938e+02
1.130000000000000000e+02,1.872523799999999881e+02
1.140000000000000000e+02,1.894147800000000075e+02
1.150000000000000000e+02,1.915710300000000075e+02
1.160000000000000000e+02,1.937210499999999911e+02
1.170000000000000000e+02,1.958645799999999895e+02
1.180000000000000000e+02,1.980015600000000120e+02
1.190000000000000000e+02,2.001318799999999953e+02
1.200000000000000000e+02,2.022553900000000056e+02
1.210000000000000000e+02,2.043719499999999982e+02
1.220000000000000000e+02,2.064814499999999953e+02
1.230000000000000000e+02,2.085838799999999935e+02
1.240000000000000000e+02,2.106790000000000020e+02
1.250000000000000000e+02,2.127667800000000113e+02
1.260000000000000000e+02,2.148471199999999897e+02
1.270000000000000000e+02,2.169199800000000096e+02
1.280000000000000000e+02,2.189851999999999919e+02
1.290000000000000000e+02,2.210427099999999996e+02
1.300000000000000000e+02,2.230923899999999946e+02
1.310000000000000000e+02,2.251341700000000117e+02
1.320000000000000000e+02,2.271679499999999905e+02
1.330000000000000000e+02,2.291936800000000005e+02
1.340000000000000000e+02,2.312112600000000100e+02
1.350000000000000000e+02,2.332205999999999904e+02
1.360000000000000000e+02,2.352216300000000047e+02
1.370000000000000000e+02,2.372142800000000022e+02
1.380000000000000000e+02,2.391984300000000019e+02
1.390000000000000000e+02,2.411740000000000066e+02
1.400000000000000000e+02,2.431409500000000037e+02
1.410000000000000000e+02,2.450991699999999867e+02
1.420000000000000000e+02,2.470486300000000028e+02
1.430000000000000000e+02,2.489892399999999952e+02
1.440000000000000000e+02,2.509209400000000016e+02
1.450000000000000000e+02,2.528436299999999903e+02
1.460000000000000000e+02,2.547572600000000023e+02
1.470000000000000000e+02,2.566617699999999900e+02
1.480000000000000000e+02,2.585570999999999913e+02
1.490000000000000000e+02,2.604431200000000217e+02
1.500000000000000000e+02,2.623198199999999929e+02
1.510000000000000000e+02,2.641871600000000058e+02
1.520000000000000000e+02,2.660449499999999716e+02
1.530000000000000000e+02,2.678931900000000041e+02
1.540000000000000000e+02,2.697318099999999959e+02
1.550000000000000000e+02,2.715606999999999971e+02
1.560000000000000000e+02,2.733798199999999952e+02
1.570000000000000000e+02,2.751890300000000025e+02
1.580000000000000000e+02,2.769883399999999938e+02
1.590000000000000000e+02,2.787775599999999940e+02
1.600000000000000000e+02,2.805566699999999969e+02
1.610000000000000000e+02,2.823255300000000148e+02
1.620000000000000000e+02,2.840841699999999719e+02
1.630000000000000000e+02,2.858323399999999879e+02
1.640000000000000000e+02,2.875700400000000059e+02
1.650000000000000000e+02,2.892971800000000258e+02
1.660000000000000000e+02,2.910136100000000283e+02
1.670000000000000000e+02,2.927192400000000134e+02
1.680000000000000000e+02,2.944139099999999871e+02
1.690000000000000000e+02,2.960976299999999810e+02
1.700000000000000000e+02,2.977701400000000262e+02
1.710000000000000000e+02,2.994313399999999774e+02
1.720000000000000000e+02,3.010811199999999985e+02
1.730000000000000000e+02,3.027192999999999756e+02
1.740000000000000000e+02,3.043457599999999843e+02
1.750000000000000000e+02,3.059603299999999990e+02
1.760000000000000000e+02,3.075628399999999942e+02
1.770000000000000000e+02,3.091531400000000076e+02
1.780000000000000000e+02,3.107310200000000009e+02
1.790000000000000000e+02,3.122962999999999738e+02
1.800000000000000000e+02,3.138487499999999955e+02
1.810000000000000000e+02,3.153882100000000150e+02
1.820000000000000000e+02,3.169144600000000196e+02
1.830000000000000000e+02,3.184273099999999772e+02
1.840000000000000000e+02,3.199265399999999886e+02
1.850000000000000000e+02,3.214119600000000219e+02
1.860000000000000000e+02,3.228832699999999818e+02
1.870000000000000000e+02,3.243402399999999943e+02
1.880000000000000000e+02,3.257826800000000276e+02
1.890000000000000000e+02,3.272103900000000181e+02
1.900000000000000000e+02,3.286229900000000157e+02
1.910000000000000000e+02,3.300203200000000265e+02
1.920000000000000000e+02,3.314021000000000186e+02
1.930000000000000000e+02,3.327680700000000229e+02
1.940000000000000000e+02,3.341180100000000266e+02
1.950000000000000000e+02,3.354516600000000039e+02
1.960000000000000000e+02,3.367687399999999798e+02
1.970000000000000000e+02,3.380690599999999790e+02
1.980000000000000000e+02,3.393523599999999760e+02
1.990000000000000000e+02,3.406184099999999830e+02
2.000000000000000000e+02,3.418670000000000186e+02
2.010000000000000000e+02,3.430979300000000194e+02
2.020000000000000000e+02,3.443109699999999975e+02
2.030000000000000000e+02,3.455059499999999844e+02
2.040000000000000000e+02,3.466827099999999859e+02
2.050000000000000000e+02,3.478410600000000272e+02
2.060000000000000000e+02,3.489808699999999817e+02
2.070000000000000000e+02,3.501019600000000196e+02
2.080000000000000000e+02,3.512043800000000147e+02
2.090000000000000000e+02,3.522879300000000171e+02
2.100000000000000000e+02,3.533525700000000143e+02
2.110000000000000000e+02,3.543982799999999997e+02
2.120000000000000000e+02,3.554251399999999990e+02
2.130000000000000000e+02,3.564330400000000054e+02
2.140000000000000000e+02,3.574220900000000256e+02
2.150000000000000000e+02,3.583924000000000092e+02
2.160000000000000000e+02,3.593439599999999814e+02
2.170000000000000000e+02,3.602771299999999997e+02
2.180000000000000000e+02,3.611919599999999946e+02
2.190000000000000000e+02,3.620886499999999728e+02
2.200000000000000000e+02,3.629674999999999727e+02
2.210000000000000000e+02,3.638287000000000262e+02
2.220000000000000000e+02,3.646726699999999823e+02
2.230000000000000000e+02,3.654995700000000056e+02
2.240000000000000000e+02,3.663099100000000021e+02
2.250000000000000000e+02,3.671039700000000039e+02
2.260000000000000000e+02,3.678822299999999927e+02
2.270000000000000000e+02,3.686451099999999883e+02
2.280000000000000000e+02,3.693931000000000040e+02
2.290000000000000000e+02,3.701266200000000026e+02
2.300000000000000000e+02,3.708462200000000166e+02
2.310000000000000000e+02,3.715523699999999963e+02
2.320000000000000000e+02,3.722456700000000183e+02
2.330000000000000000e+02,3.729266700000000014e+02
2.340000000000000000e+02,3.735959199999999782e+02
2.350000000000000000e+02,3.742539699999999812e+02
2.360000000000000000e+02,3.749014599999999859e+02
2.370000000000000000e+02,3.755389700000000062e+02
2.380000000000000000e+02,3.761670500000000175e+02
2.390000000000000000e+02,3.767863800000000083e+02
2.400000000000000000e+02,3.773974900000000048e+02
2.410000000000000000e+02,3.780010399999999890e+02
2.420000000000000000e+02,3.785975999999999999e+02
2.430000000000000000e+02,3.791877400000000193e+02
2.440000000000000000e+02,3.797721300000000042e+02
2.450000000000000000e+02,3.803513500000000249e+02
2.460000000000000000e+02,3.809259299999999939e+02
2.470000000000000000e+02,3.814964899999999943e+02
2.480000000000000000e+02,3.820635700000000270e+02
2.490000000000000000e+02,3.826277799999999729e+02
2.500000000000000000e+02,3.831896399999999971e+02
2.510000000000000000e+02,3.837497599999999807e+02
2.520000000000000000e+02,3.843085599999999999e+02
2.530000000000000000e+02,3.848666099999999801e+02
2.540000000000000000e+02,3.854244400000000041e+02
2.550000000000000000e+02,3.859825700000000097e+02
2.560000000000000000e+02,3.865414999999999850e+02
2.570000000000000000e+02,3.871016500000000065e+02
2.580000000000000000e+02,3.876637600000000248e+02
2.590000000000000000e+02,3.882280000000000086e+02
2.600000000000000000e+02,3.887949499999999716e+02
2.610000000000000000e+02,3.893651100000000156e+02
2.620000000000000000e+02,3.899388700000000085e+02
2.630000000000000000e+02,3.905168800000000147e+02
2.640000000000000000e+02,3.910992100000000278e+02
2.650000000000000000e+02,3.916867100000000050e+02
2.660000000000000000e+02,3.922795399999999972e+02
2.670000000000000000e+02,3.928783300000000054e+02
2.680000000000000000e+02,3.934832799999999793e+02
2.690000000000000000e+02,3.940952100000000087e+02
2.700000000000000000e+02,3.947142299999999864e+02
2.710000000000000000e+02,3.953407900000000268e+02
2.720000000000000000e+02,3.959755200000000173e+02
2.730000000000000000e+02,3.966187400000000025e+02
2.740000000000000000e+02,3.972710000000000150e+02
2.750000000000000000e+02,3.979327999999999861e+02
2.760000000000000000e+02,3.986044299999999794e+02
2.770000000000000000e+02,3.992865300000000275e+02
2.780000000000000000e+02,3.999794600000000173e+02
2.790000000000000000e+02,4.006839899999999943e+02
2.800000000000000000e+02,4.014003299999999967e+02
2.810000000000000000e+02,4.021292700000000195e+02
2.820000000000000000e+02,4.028712199999999939e+02
2.830000000000000000e+02,4.036268600000000220e+02
2.840000000000000000e+02,4.043967000000000098e+02
2.850000000000000000e+02,4.051814299999999776e+02
2.860000000000000000e+02,4.059816900000000146e+02
2.870000000000000000e+02,4.067980000000000018e+02
2.880000000000000000e+02,4.076312599999999975e+02
2.890000000000000000e+02,4.084821200000000090e+02
2.900000000000000000e+02,4.093512299999999868e+02
2.910000000000000000e+02,4.102396200000000022e+02
2.920000000000000000e+02,4.111479499999999803e+02
2.930000000000000000e+02,4.120768400000000042e+02
2.940000000000000000e+02,4.130276799999999753e+02
2.950000000000000000e+02,4.140008900000000267e+02
2.960000000000000000e+02,4.149976199999999835e+02
2.970000000000000000e+02,4.160187399999999798e+02
2.980000000000000000e+02,4.170655199999999923e+02
2.990000000000000000e+02,4.181386999999999716e+02
3.000000000000000000e+02,4.192395900000000211e+02
3.010000000000000000e+02,4.203692599999999970e+02
3.020000000000000000e+02,4.215285900000000083e+02
3.030000000000000000e+02,4.227189900000000193e+02
3.040000000000000000e+02,4.239413499999999999e+02
3.050000000000000000e+02,4.251968400000000088e+02
3.060000000000000000e+02,4.264863899999999717e+02
3.070000000000000000e+02,4.278106999999999971e+02
3.080000000000000000e+02,4.291715100000000120e+02
3.090000000000000000e+02,4.305689100000000167e+02
3.100000000000000000e+02,4.320037800000000061e+02
3.110000000000000000e+02,4.334770500000000197e+02
3.120000000000000000e+02,4.349884599999999750e+02
3.130000000000000000e+02,4.365373500000000035e+02
3.140000000000000000e+02,4.381245999999999867e+02
3.150000000000000000e+02,4.397486000000000104e+02
3.160000000000000000e+02,4.414077800000000025e+02
3.170000000000000000e+02,4.431003999999999792e+02
3.180000000000000000e+02,4.448238200000000120e+02
3.190000000000000000e+02,4.465753799999999956e+02
3.200000000000000000e+02,4.483504899999999793e+02
3.210000000000000000e+02,4.501448100000000068e+02
3.220000000000000000e+02,4.519531600000000253e+02
3.230000000000000000e+02,4.537693499999999744e+02
3.240000000000000000e+02,4.555875500000000216e+02
3.250000000000000000e+02,4.574020699999999806e+02
3.260000000000000000e+02,4.592065099999999802e+02
3.270000000000000000e+02,4.609958199999999806e+02
3.280000000000000000e+02,4.627647400000000175e+02
3.290000000000000000e+02,4.645098300000000222e+02
3.300000000000000000e+02,4.662287000000000035e+02
3.310000000000000000e+02,4.679193999999999960e+02
3.320000000000000000e+02,4.695816300000000183e+02
3.330000000000000000e+02,4.712161300000000210e+02
3.340000000000000000e+02,4.728239399999999932e+02
3.350000000000000000e+02,4.744064300000000003e+02
3.360000000000000000e+02,4.759650599999999940e+02
3.370000000000000000e+02,4.775013999999999896e+02
3.380000000000000000e+02,4.790169399999999769e+02
3.390000000000000000e+02,4.805128199999999765e+02
3.400000000000000000e+02,4.819903600000000097e+02
3.410000000000000000e+02,4.834504699999999957e+02
3.420000000000000000e+02,4.848937399999999798e+02
3.430000000000000000e+02,4.863211400000000140e+02
3.440000000000000000e+02,4.877330900000000042e+02
3.450000000000000000e+02,4.891304000000000087e+02
3.460000000000000000e+02,4.905132100000000150e+02
3.470000000000000000e+02,4.918826599999999871e+02
3.480000000000000000e+02,4.932387100000000260e+02
3.490000000000000000e+02,4.945817900000000122e+02
3.500000000000000000e+02,4.959124100000000226e+02
3.510000000000000000e+02,4.972307400000000257e+02
3.520000000000000000e+02,4.985370800000000031e+02
3.530000000000000000e+02,4.998320899999999938e+02
3.540000000000000000e+02,5.011156300000000101e+02
3.550000000000000000e+02,5.023882100000000150e+02
3.560000000000000000e+02,5.036501200000000154e+02
3.570000000000000000e+02,5.049014000000000237e+02
3.580000000000000000e+02,5.061424900000000093e+02
3.590000000000000000e+02,5.073737199999999916e+02
3.600000000000000000e+02,5.085949699999999893e+02
3.610000000000000000e+02,5.098065199999999777e+02
3.620000000000000000e+02,5.110085799999999949e+02
3.630000000000000000e+02,5.122012899999999718e+02
3.640000000000000000e+02,5.133848900000000413e+02
3.650000000000000000e+02,5.145595100000000457e+02
3.660000000000000000e+02,5.157252799999999979e+02
3.670000000000000000e+02,5.168823899999999867e+02
3.680000000000000000e+02,5.180308800000000247e+02
3.690000000000000000e+02,5.191709600000000364e+02
3.700000000000000000e+02,5.203027299999999968e+02
3.710000000000000000e+02,5.214264500000000453e+02
3.720000000000000000e+02,5.225419299999999794e+02
3.730000000000000000e+02,5.236492899999999509e+02
3.740000000000000000e+02,5.247491499999999860e+02
3.750000000000000000e+02,5.258412499999999454e+02
3.760000000000000000e+02,5.269256000000000313e+02
3.770000000000000000e+02,5.280023200000000543e+02
3.780000000000000000e+02,5.290718399999999519e+02
3.790000000000000000e+02,5.301338500000000522e+02
3.800000000000000000e+02,5.311885399999999890e+02
3.810000000000000000e+02,5.322361499999999523e+02
3.820000000000000000e+02,5.332764899999999670e+02
3.830000000000000000e+02,5.343100600000000213e+02
3.840000000000000000e+02,5.353366099999999506e+02
3.850000000000000000e+02,5.363561399999999821e+02
3.860000000000000000e+02,5.373690800000000536e+02
3.870000000000000000e+02,5.383751200000000381e+02
3.880000000000000000e+02,5.393746899999999869e+02
3.890000000000000000e+02,5.403674899999999752e+02
3.900000000000000000e+02,5.413539399999999659e+02
3.910000000000000000e+02,5.423336799999999585e+02
3.920000000000000000e+02,5.433072499999999536e+02
3.930000000000000000e+02,5.442742899999999509e+02
3.940000000000000000e+02,5.452351099999999633e+02
3.950000000000000000e+02,5.461898800000000165e+02
3.960000000000000000e+02,5.471381800000000339e+02
3.970000000000000000e+02,5.480804399999999532e+02
3.980000000000000000e+02,5.490167800000000398e+02
3.990000000000000000e+02,5.499469599999999900e+02
4.000000000000000000e+02,5.508712199999999939e+02
4.010000000000000000e+02,5.517896700000000010e+02
4.020000000000000000e+02,5.527021499999999605e+02
4.030000000000000000e+02,5.536086999999999989e+02
4.040000000000000000e+02,5.545095800000000281e+02
4.050000000000000000e+02,5.554047199999999975e+02
4.060000000000000000e+02,5.562940700000000334e+02
4.070000000000000000e+02,5.571778600000000097e+02
4.080000000000000000e+02,5.580560900000000402e+02
4.090000000000000000e+02,5.589288900000000240e+02
4.100000000000000000e+02,5.597960199999999986e+02
4.110000000000000000e+02,5.606576499999999896e+02
4.120000000000000000e+02,5.615137300000000096e+02
4.130000000000000000e+02,5.623644399999999450e+02
4.140000000000000000e+02,5.632097800000000234e+02
4.150000000000000000e+02,5.640498000000000047e+02
4.160000000000000000e+02,5.648846999999999525e+02
4.170000000000000000e+02,5.657143600000000561e+02
4.180000000000000000e+02,5.665387600000000248e+02
4.190000000000000000e+02,5.673579700000000230e+02
4.200000000000000000e+02,5.681721199999999499e+02
4.210000000000000000e+02,5.689810800000000199e+02
4.220000000000000000e+02,5.697850300000000061e+02
4.230000000000000000e+02,5.705839200000000346e+02
4.240000000000000000e+02,5.713776900000000296e+02
4.250000000000000000e+02,5.721665600000000040e+02
4.260000000000000000e+02,5.729505599999999959e+02
4.270000000000000000e+02,5.737296099999999797e+02
4.280000000000000000e+02,5.745037800000000061e+02
4.290000000000000000e+02,5.752731300000000374e+02
4.300000000000000000e+02,5.760376599999999598e+02
4.310000000000000000e+02,5.767974199999999882e+02
4.320000000000000000e+02,5.775525499999999965e+02
4.330000000000000000e+02,5.783028600000000097e+02
4.340000000000000000e+02,5.790484000000000151e+02
4.350000000000000000e+02,5.797893100000000004e+02
4.360000000000000000e+02,5.805257000000000289e+02
4.370000000000000000e+02,5.812575699999999870e+02
4.380000000000000000e+02,5.819847399999999880e+02
4.390000000000000000e+02,5.827074000000000069e+02
4.400000000000000000e+02,5.834255399999999554e+02
4.410000000000000000e+02,5.841391599999999471e+02
4.420000000000000000e+02,5.848484499999999571e+02
4.430000000000000000e+02,5.855532200000000103e+02
4.440000000000000000e+02,5.862536000000000058e+02
4.450000000000000000e+02,5.869495799999999690e+02
4.460000000000000000e+02,5.876413000000000011e+02
4.470000000000000000e+02,5.883286100000000260e+02
4.480000000000000000e+02,5.890117199999999684e+02
4.490000000000000000e+02,5.896906099999999924e+02
4.500000000000000000e+02,5.903651700000000346e+02
4.510000000000000000e+02,5.910355799999999817e+02
4.520000000000000000e+02,5.917017799999999852e+02
4.530000000000000000e+02,5.923638300000000072e+02
4.540000000000000000e+02,5.930217900000000100e+02
4.550000000000000000e+02,5.936756000000000313e+02
4.560000000000000000e+02,5.943253200000000334e+02
4.570000000000000000e+02,5.949710700000000543e+02
4.580000000000000000e+02,5.956127300000000560e+02
4.590000000000000000e+02,5.962504300000000512e+02
4.600000000000000000e+02,5.968840900000000147e+02
4.610000000000000000e+02,5.975137899999999718e+02
4.620000000000000000e+02,5.981395899999999983e+02
4.630000000000000000e+02,5.987614700000000312e+02
4.640000000000000000e+02,5.993795199999999568e+02
4.650000000000000000e+02,5.999936500000000024e+02
4.660000000000000000e+02,6.006040000000000418e+02
4.670000000000000000e+02,6.012104500000000371e+02
4.680000000000000000e+02,6.018132299999999759e+02
4.690000000000000000e+02,6.024122300000000223e+02
4.700000000000000000e+02,6.030074499999999489e+02
4.710000000000000000e+02,6.035989399999999705e+02
4.720000000000000000e+02,6.041867700000000241e+02
4.730000000000000000e+02,6.047709399999999960e+02
4.740000000000000000e+02,6.053514400000000251e+02
4.750000000000000000e+02,6.059282799999999725e+02
4.760000000000000000e+02,6.065015899999999647e+02
4.770000000000000000e+02,6.070712300000000141e+02
4.780000000000000000e+02,6.076373300000000199e+02
4.790000000000000000e+02,6.081998899999999821e+02
4.800000000000000000e+02,6.087589100000000144e+02
4.810000000000000000e+02,6.093145100000000411e+02
4.820000000000000000e+02,6.098665200000000368e+02
4.830000000000000000e+02,6.104151600000000144e+02
4.840000000000000000e+02,6.109602700000000368e+02
4.850000000000000000e+02,6.115020100000000411e+02
4.860000000000000000e+02,6.120404099999999517e+02
4.870000000000000000e+02,6.125753799999999956e+02
4.880000000000000000e+02,6.131070600000000468e+02
4.890000000000000000e+02,6.136353800000000547e+02
4.900000000000000000e+02,6.141603999999999814e+02
4.910000000000000000e+02,6.146820699999999533e+02
4.920000000000000000e+02,6.152005000000000337e+02
4.930000000000000000e+02,6.157156400000000076e+02
4.940000000000000000e+02,6.162276000000000522e+02
4.950000000000000000e+02,6.167363299999999526e+02
4.960000000000000000e+02,6.172418800000000374e+02
4.970000000000000000e+02,6.177443200000000161e+02
4.980000000000000000e+02,6.182435299999999643e+02
4.990000000000000000e+02,6.187395599999999831e+02
5.000000000000000000e+02,6.192325399999999718e+02
5.010000000000000000e+02,6.197224099999999680e+02
5.020000000000000000e+02,6.202092300000000478e+02
5.030000000000000000e+02,6.206929900000000089e+02
5.040000000000000000e+02,6.211737100000000282e+02
5.050000000000000000e+02,6.216513099999999667e+02
5.060000000000000000e+02,6.221259800000000268e+02
5.070000000000000000e+02,6.225977199999999812e+02
5.080000000000000000e+02,6.230665299999999434e+02
5.090000000000000000e+02,6.235322899999999890e+02
5.100000000000000000e+02,6.239951800000000048e+02
5.110000000000000000e+02,6.244551400000000285e+02
5.120000000000000000e+02,6.249121699999999464e+02
5.130000000000000000e+02,6.253663299999999481e+02
5.140000000000000000e+02,6.258176899999999705e+02
5.150000000000000000e+02,6.262662400000000389e+02
5.160000000000000000e+02,6.267118500000000267e+02
5.170000000000000000e+02,6.271547199999999975e+02
5.180000000000000000e+02,6.275947899999999890e+02
5.190000000000000000e+02,6.280320400000000518e+02
5.200000000000000000e+02,6.284665499999999838e+02
5.210000000000000000e+02,6.288983200000000124e+02
5.220000000000000000e+02,6.293273900000000367e+02
5.230000000000000000e+02,6.297537200000000439e+02
5.240000000000000000e+02,6.301774299999999585e+02
5.250000000000000000e+02,6.305984499999999571e+02
5.260000000000000000e+02,6.310167800000000398e+02
5.270000000000000000e+02,6.314325599999999667e+02
5.280000000000000000e+02,6.318456400000000031e+02
5.290000000000000000e+02,6.322561600000000226e+02
5.300000000000000000e+02,6.326640599999999495e+02
5.310000000000000000e+02,6.330693999999999733e+02
5.320000000000000000e+02,6.334721700000000055e+02
5.330000000000000000e+02,6.338723800000000210e+02
5.340000000000000000e+02,6.342701399999999694e+02
5.350000000000000000e+02,6.346653400000000147e+02
5.360000000000000000e+02,6.350580400000000054e+02
5.370000000000000000e+02,6.354482400000000553e+02
5.380000000000000000e+02,6.358360000000000127e+02
5.390000000000000000e+02,6.362213100000000168e+02
5.400000000000000000e+02,6.366041900000000169e+02
5.410000000000000000e+02,6.369846199999999499e+02
5.420000000000000000e+02,6.373626699999999801e+02
5.430000000000000000e+02,6.377383399999999938e+02
5.440000000000000000e+02,6.381116299999999910e+02
5.450000000000000000e+02,6.384825399999999718e+02
5.460000000000000000e+02,6.388511399999999867e+02
5.470000000000000000e+02,6.392174099999999726e+02
5.480000000000000000e+02,6.395813600000000179e+02
5.490000000000000000e+02,6.399429900000000089e+02
5.500000000000000000e+02,6.403022499999999582e+02
5.510000000000000000e+02,6.406593000000000302e+02
5.520000000000000000e+02,6.410140400000000227e+02
5.530000000000000000e+02,6.413666399999999612e+02
5.540000000000000000e+02,6.417169800000000350e+02
5.550000000000000000e+02,6.420651199999999790e+02
5.560000000000000000e+02,6.424110100000000330e+02
5.570000000000000000e+02,6.427546999999999571e+02
5.580000000000000000e+02,6.430961899999999787e+02
5.590000000000000000e+02,6.434355500000000347e+02
5.600000000000000000e+02,6.437727700000000368e+02
5.610000000000000000e+02,6.441078499999999849e+02
5.620000000000000000e+02,6.444408600000000433e+02
5.630000000000000000e+02,6.447716699999999719e+02
5.640000000000000000e+02,6.451003399999999601e+02
5.650000000000000000e+02,6.454270000000000209e+02
5.660000000000000000e+02,6.457516500000000406e+02
5.670000000000000000e+02,6.460741600000000062e+02
5.680000000000000000e+02,6.463946499999999560e+02
5.690000000000000000e+02,6.467130700000000161e+02
5.700000000000000000e+02,6.470294800000000350e+02
5.710000000000000000e+02,6.473439300000000003e+02
5.720000000000000000e+02,6.476563700000000381e+02
5.730000000000000000e+02,6.479668000000000347e+02
5.740000000000000000e+02,6.482752699999999777e+02
5.750000000000000000e+02,6.485817299999999932e+02
5.760000000000000000e+02,6.488862900000000309e+02
5.770000000000000000e+02,6.491889599999999518e+02
5.780000000000000000e+02,6.494896199999999453e+02
5.790000000000000000e+02,6.497883900000000494e+02
5.800000000000000000e+02,6.500853299999999990e+02
5.810000000000000000e+02,6.503803699999999708e+02
5.820000000000000000e+02,6.506734599999999773e+02
5.830000000000000000e+02,6.509647200000000566e+02
5.840000000000000000e+02,6.512541499999999814e+02
5.850000000000000000e+02,6.515416900000000169e+02
5.860000000000000000e+02,6.518274499999999989e+02
5.870000000000000000e+02,6.521113900000000285e+02
5.880000000000000000e+02,6.523934900000000425e+02
5.890000000000000000e+02,6.526738299999999526e+02
5.900000000000000000e+02,6.529523900000000367e+02
5.910000000000000000e+02,6.532291900000000169e+02
5.920000000000000000e+02,6.535041499999999814e+02
5.930000000000000000e+02,6.537773999999999432e+02
5.940000000000000000e+02,6.540489499999999907e+02
5.950000000000000000e+02,6.543187900000000354e+02
5.960000000000000000e+02,6.545867899999999509e+02
5.970000000000000000e+02,6.548532099999999900e+02
5.980000000000000000e+02,6.551178599999999506e+02
5.990000000000000000e+02,6.553808599999999842e+02