# Time [s], Temperature [C]
1.000000000000000000e+00,2.500000000000000000e+01
2.000000000000000000e+00,2.500000000000000000e+01
3.000000000000000000e+00,2.500000000000000000e+01
4.000000000000000000e+00,2.500000000000000000e+01
5.000000000000000000e+00,2.500000199999999850e+01
6.000000000000000000e+00,2.500000800000000112e+01
7.000000000000000000e+00,2.500002900000000139e+01
8.000000000000000000e+00,2.500009299999999968e+01
9.000000000000000000e+00,2.500026700000000091e+01
1.000000000000000000e+01,2.500066400000000044e+01
1.100000000000000000e+01,2.500148199999999932e+01
1.200000000000000000e+01,2.500300800000000123e+01
1.300000000000000000e+01,2.500562499999999844e+01
1.400000000000000000e+01,2.500981700000000174e+01
1.500000000000000000e+01,2.501614599999999911e+01
1.600000000000000000e+01,2.502523400000000109e+01
1.700000000000000000e+01,2.503774500000000103e+01
1.800000000000000000e+01,2.505435800000000057e+01
1.900000000000000000e+01,2.507574800000000081e+01
2.000000000000000000e+01,2.510257500000000164e+01
2.100000000000000000e+01,2.513546200000000042e+01
2.200000000000000000e+01,2.517498399999999847e+01
2.300000000000000000e+01,2.522167599999999865e+01
2.400000000000000000e+01,2.527600899999999839e+01
2.500000000000000000e+01,2.533840400000000059e+01
2.600000000000000000e+01,2.540922000000000125e+01
2.700000000000000000e+01,2.548876599999999826e+01
2.800000000000000000e+01,2.557729000000000141e+01
2.900000000000000000e+01,2.567499700000000118e+01
3.000000000000000000e+01,2.578204500000000010e+01
3.100000000000000000e+01,2.589854400000000112e+01
3.200000000000000000e+01,2.602456499999999906e+01
3.300000000000000000e+01,2.616013900000000092e+01
3.400000000000000000e+01,2.630528100000000080e+01
3.500000000000000000e+01,2.645995299999999872e+01
3.600000000000000000e+01,2.662411099999999919e+01
3.700000000000000000e+01,2.679767199999999860e+01
3.800000000000000000e+01,2.698054300000000083e+01
3.900000000000000000e+01,2.717262099999999947e+01
4.000000000000000000e+01,2.737376199999999926e+01
4.100000000000000000e+01,2.758383600000000158e+01
4.200000000000000000e+01,2.780267699999999920e+01
4.300000000000000000e+01,2.803013800000000089e+01
4.400000000000000000e+01,2.826604800000000139e+01
4.500000000000000000e+01,2.851021799999999828e+01
4.600000000000000000e+01,2.876247800000000154e+01
4.700000000000000000e+01,2.902263599999999855e+01
4.800000000000000000e+01,2.929051400000000172e+01
4.900000000000000000e+01,2.956591999999999842e+01
5.000000000000000000e+01,2.984867300000000157e+01
5.100000000000000000e+01,3.013856300000000132e+01
5.200000000000000000e+01,3.043541000000000096e+01
5.300000000000000000e+01,3.073902500000000160e+01
5.400000000000000000e+01,3.104922499999999985e+01
5.500000000000000000e+01,3.136580999999999975e+01
5.600000000000000000e+01,3.168861800000000173e+01
5.700000000000000000e+01,3.201745199999999869e+01
5.800000000000000000e+01,3.235213099999999997e+01
5.900000000000000000e+01,3.269248999999999938e+01
6.000000000000000000e+01,3.303834200000000010e+01
6.100000000000000000e+01,3.338950299999999771e+01
6.200000000000000000e+01,3.374583799999999911e+01
6.300000000000000000e+01,3.410717400000000055e+01
6.400000000000000000e+01,3.447333900000000284e+01
6.500000000000000000e+01,3.484418500000000307e+01
6.600000000000000000e+01,3.521955100000000272e+01
6.700000000000000000e+01,3.559928899999999885e+01
6.800000000000000000e+01,3.598325299999999771e+01
6.900000000000000000e+01,3.637130400000000208e+01
7.000000000000000000e+01,3.676329400000000192e+01
7.100000000000000000e+01,3.715909200000000112e+01
7.200000000000000000e+01,3.755856699999999648e+01
7.300000000000000000e+01,3.796158599999999694e+01
7.400000000000000000e+01,3.836802699999999788e+01
7.500000000000000000e+01,3.877776300000000020e+01
7.600000000000000000e+01,3.919068099999999788e+01
7.700000000000000000e+01,3.960666299999999751e+01
7.800000000000000000e+01,4.002558899999999653e+01
7.900000000000000000e+01,4.044735000000000014e+01
8.000000000000000000e+01,4.087184500000000043e+01
8.100000000000000000e+01,4.129896899999999960e+01
8.200000000000000000e+01,4.172861499999999779e+01
8.300000000000000000e+01,4.216068599999999833e+01
8.400000000000000000e+01,4.259508499999999742e+01
8.500000000000000000e+01,4.303172299999999950e+01
8.600000000000000000e+01,4.347053100000000114e+01
8.700000000000000000e+01,4.391139600000000343e+01
8.800000000000000000e+01,4.435423300000000069e+01
8.900000000000000000e+01,4.479895799999999895e+01
9.000000000000000000e+01,4.524549100000000124e+01
9.100000000000000000e+01,4.569375200000000348e+01
9.200000000000000000e+01,4.614366900000000271e+01
9.300000000000000000e+01,4.659517300000000262e+01
9.400000000000000000e+01,4.704822200000000265e+01
9.500000000000000000e+01,4.750271200000000249e+01
9.600000000000000000e+01,4.795856500000000011e+01
9.700000000000000000e+01,4.841572599999999937e+01
9.800000000000000000e+01,4.887412599999999685e+01
9.900000000000000000e+01,4.933371400000000051e+01
1.000000000000000000e+02,4.979443700000000206e+01
1.010000000000000000e+02,5.025625999999999749e+01
1.020000000000000000e+02,5.071908200000000022e+01
1.030000000000000000e+02,5.118284200000000084e+01
1.040000000000000000e+02,5.164750699999999739e+01
1.050000000000000000e+02,5.211302599999999785e+01
1.060000000000000000e+02,5.257935700000000168e+01
1.070000000000000000e+02,5.304647400000000346e+01
1.080000000000000000e+02,5.351429000000000258e+01
1.090000000000000000e+02,5.398274599999999879e+01
1.100000000000000000e+02,5.445182799999999901e+01
1.110000000000000000e+02,5.492148600000000158e+01
1.120000000000000000e+02,5.539168200000000297e+01
1.130000000000000000e+02,5.586240800000000206e+01
1.140000000000000000e+02,5.633357600000000076e+01
1.150000000000000000e+02,5.680514500000000311e+01
1.160000000000000000e+02,5.727709600000000023e+01
1.170000000000000000e+02,5.774939700000000187e+01
1.180000000000000000e+02,5.822203100000000120e+01
1.190000000000000000e+02,5.869495400000000274e+01
1.200000000000000000e+02,5.916809800000000052e+01
1.210000000000000000e+02,5.964145700000000261e+01
1.220000000000000000e+02,6.011499799999999993e+01
1.230000000000000000e+02,6.058870300000000242e+01
1.240000000000000000e+02,6.106255699999999820e+01
1.250000000000000000e+02,6.153649500000000216e+01
1.260000000000000000e+02,6.201048699999999769e+01
1.270000000000000000e+02,6.248452799999999741e+01
1.280000000000000000e+02,6.295859500000000253e+01
1.290000000000000000e+02,6.343267099999999914e+01
1.300000000000000000e+02,6.390673100000000062e+01
1.310000000000000000e+02,6.438071399999999755e+01
1.320000000000000000e+02,6.485463000000000022e+01
1.330000000000000000e+02,6.532844500000000210e+01
1.340000000000000000e+02,6.580216199999999560e+01
1.350000000000000000e+02,6.627576399999999524e+01
1.360000000000000000e+02,6.674917600000000562e+01
1.370000000000000000e+02,6.722241200000000561e+01
1.380000000000000000e+02,6.769544999999999391e+01
1.390000000000000000e+02,6.816828900000000147e+01
1.400000000000000000e+02,6.864091500000000678e+01
1.410000000000000000e+02,6.911330399999999941e+01
1.420000000000000000e+02,6.958541099999999346e+01
1.430000000000000000e+02,7.005722799999999495e+01
1.440000000000000000e+02,7.052876299999999787e+01
1.450000000000000000e+02,7.099999200000000599e+01
1.460000000000000000e+02,7.147093200000000479e+01
1.470000000000000000e+02,7.194152099999999450e+01
1.480000000000000000e+02,7.241175099999999532e+01
1.490000000000000000e+02,7.288160700000000247e+01
1.500000000000000000e+02,7.335109699999999577e+01
1.510000000000000000e+02,7.382022100000000364e+01
1.520000000000000000e+02,7.428896299999999542e+01
1.530000000000000000e+02,7.475726299999999469e+01
1.540000000000000000e+02,7.522513600000000622e+01
1.550000000000000000e+02,7.569257399999999336e+01
1.560000000000000000e+02,7.615958399999999529e+01
1.570000000000000000e+02,7.662615999999999872e+01
1.580000000000000000e+02,7.709227799999999320e+01
1.590000000000000000e+02,7.755790700000000015e+01
1.600000000000000000e+02,7.802304100000000631e+01
1.610000000000000000e+02,7.848768599999999651e+01
1.620000000000000000e+02,7.895183600000000013e+01
1.630000000000000000e+02,7.941548199999999724e+01
1.640000000000000000e+02,7.987864700000000084e+01
1.650000000000000000e+02,8.034127800000000263e+01
1.660000000000000000e+02,8.080336800000000608e+01
1.670000000000000000e+02,8.126490800000000547e+01
1.680000000000000000e+02,8.172591400000000306e+01
1.690000000000000000e+02,8.218636300000000006e+01
1.700000000000000000e+02,8.264628600000000347e+01
1.710000000000000000e+02,8.310565900000000283e+01
1.720000000000000000e+02,8.356444500000000630e+01
1.730000000000000000e+02,8.402264399999999966e+01
1.740000000000000000e+02,8.448025499999999965e+01
1.750000000000000000e+02,8.493727900000000375e+01
1.760000000000000000e+02,8.539370700000000625e+01
1.770000000000000000e+02,8.584957900000000564e+01
1.780000000000000000e+02,8.630483999999999867e+01
1.790000000000000000e+02,8.675949099999999703e+01
1.800000000000000000e+02,8.721352400000000671e+01
1.810000000000000000e+02,8.766693899999999928e+01
1.820000000000000000e+02,8.811972799999999495e+01
1.830000000000000000e+02,8.857189200000000540e+01
1.840000000000000000e+02,8.902342199999999650e+01
1.850000000000000000e+02,8.947435000000000116e+01
1.860000000000000000e+02,8.992464400000000069e+01
1.870000000000000000e+02,9.037429000000000201e+01
1.880000000000000000e+02,9.082329599999999914e+01
1.890000000000000000e+02,9.127164500000000658e+01
1.900000000000000000e+02,9.171934500000000412e+01
1.910000000000000000e+02,9.216639700000000346e+01
1.920000000000000000e+02,9.261278500000000236e+01
1.930000000000000000e+02,9.305853299999999706e+01
1.940000000000000000e+02,9.350361599999999385e+01
1.950000000000000000e+02,9.394803600000000188e+01
1.960000000000000000e+02,9.439178499999999872e+01
1.970000000000000000e+02,9.483486899999999764e+01
1.980000000000000000e+02,9.527728299999999706e+01
1.990000000000000000e+02,9.571901699999999380e+01
2.000000000000000000e+02,9.616007199999999955e+01
2.010000000000000000e+02,9.660045599999999411e+01
2.020000000000000000e+02,9.704015400000000113e+01
2.030000000000000000e+02,9.747918699999999603e+01
2.040000000000000000e+02,9.791753400000000340e+01
2.050000000000000000e+02,9.835519399999999735e+01
2.060000000000000000e+02,9.879216800000000376e+01
2.070000000000000000e+02,9.922844700000000273e+01
2.080000000000000000e+02,9.966403999999999996e+01
2.090000000000000000e+02,1.000989399999999989e+02
2.100000000000000000e+02,1.005331500000000062e+02
2.110000000000000000e+02,1.009666600000000045e+02
2.120000000000000000e+02,1.013994799999999969e+02
2.130000000000000000e+02,1.018315999999999946e+02
2.140000000000000000e+02,1.022630300000000005e+02
2.150000000000000000e+02,1.026937599999999975e+02
2.160000000000000000e+02,1.031237899999999996e+02
2.170000000000000000e+02,1.035531200000000069e+02
2.180000000000000000e+02,1.039817400000000021e+02
2.190000000000000000e+02,1.044096600000000024e+02
2.200000000000000000e+02,1.048368799999999936e+02
2.210000000000000000e+02,1.052633799999999979e+02
2.220000000000000000e+02,1.056891899999999964e+02
2.230000000000000000e+02,1.061142799999999937e+02
2.240000000000000000e+02,1.065386699999999962e+02
2.250000000000000000e+02,1.069623500000000007e+02
2.260000000000000000e+02,1.073853100000000040e+02
2.270000000000000000e+02,1.078075800000000015e+02
2.280000000000000000e+02,1.082291299999999978e+02
2.290000000000000000e+02,1.086499699999999962e+02
2.300000000000000000e+02,1.090701099999999997e+02
2.310000000000000000e+02,1.094895199999999988e+02
2.320000000000000000e+02,1.099082499999999953e+02
2.330000000000000000e+02,1.103262600000000049e+02
2.340000000000000000e+02,1.107435499999999990e+02
2.350000000000000000e+02,1.111601299999999952e+02
2.360000000000000000e+02,1.115759999999999934e+02
2.370000000000000000e+02,1.119911500000000046e+02
2.380000000000000000e+02,1.124055900000000037e+02
2.390000000000000000e+02,1.128193299999999937e+02
2.400000000000000000e+02,1.132323499999999967e+02
2.410000000000000000e+02,1.136446499999999986e+02
2.420000000000000000e+02,1.140562400000000025e+02
2.430000000000000000e+02,1.144671199999999942e+02
2.440000000000000000e+02,1.148772799999999989e+02
2.450000000000000000e+02,1.152867399999999947e+02
2.460000000000000000e+02,1.156954700000000003e+02
2.470000000000000000e+02,1.161034899999999936e+02
2.480000000000000000e+02,1.165107900000000001e+02
2.490000000000000000e+02,1.169173799999999943e+02
2.500000000000000000e+02,1.173232600000000048e+02
2.510000000000000000e+02,1.177284199999999998e+02
2.520000000000000000e+02,1.181328699999999969e+02
2.530000000000000000e+02,1.185366099999999960e+02
2.540000000000000000e+02,1.189396399999999971e+02
2.550000000000000000e+02,1.193419499999999971e+02
2.560000000000000000e+02,1.197435499999999990e+02
2.570000000000000000e+02,1.201444500000000062e+02
2.580000000000000000e+02,1.205446199999999948e+02
2.590000000000000000e+02,1.209440900000000028e+02
2.600000000000000000e+02,1.213428600000000017e+02
2.610000000000000000e+02,1.217409099999999995e+02
2.620000000000000000e+02,1.221382399999999961e+02
2.630000000000000000e+02,1.225348699999999980e+02
2.640000000000000000e+02,1.229307799999999986e+02
2.650000000000000000e+02,1.233259800000000013e+02
2.660000000000000000e+02,1.237204700000000059e+02
2.670000000000000000e+02,1.241142600000000016e+02
2.680000000000000000e+02,1.245073299999999961e+02
2.690000000000000000e+02,1.248996900000000068e+02
2.700000000000000000e+02,1.252913400000000053e+02
2.710000000000000000e+02,1.256822700000000026e+02
2.720000000000000000e+02,1.260725099999999941e+02
2.730000000000000000e+02,1.264620400000000018e+02
2.740000000000000000e+02,1.268508599999999973e+02
2.750000000000000000e+02,1.272389799999999980e+02
2.760000000000000000e+02,1.276264000000000038e+02
2.770000000000000000e+02,1.280131100000000117e+02
2.780000000000000000e+02,1.283991100000000074e+02
2.790000000000000000e+02,1.287844200000000114e+02
2.800000000000000000e+02,1.291690099999999859e+02
2.810000000000000000e+02,1.295528999999999940e+02
2.820000000000000000e+02,1.299360800000000040e+02
2.830000000000000000e+02,1.303185599999999909e+02
2.840000000000000000e+02,1.307003499999999860e+02
2.850000000000000000e+02,1.310814200000000085e+02
2.860000000000000000e+02,1.314617900000000077e+02
2.870000000000000000e+02,1.318414600000000121e+02
2.880000000000000000e+02,1.322204399999999964e+02
2.890000000000000000e+02,1.325987199999999859e+02
2.900000000000000000e+02,1.329763000000000090e+02
2.910000000000000000e+02,1.333531999999999869e+02
2.920000000000000000e+02,1.337293899999999951e+02
2.930000000000000000e+02,1.341048700000000053e+02
2.940000000000000000e+02,1.344796800000000019e+02
2.950000000000000000e+02,1.348537800000000004e+02
2.960000000000000000e+02,1.352271700000000010e+02
2.970000000000000000e+02,1.355998700000000099e+02
2.980000000000000000e+02,1.359718799999999987e+02
2.990000000000000000e+02,1.363431899999999928e+02
3.000000000000000000e+02,1.367138099999999952e+02
3.010000000000000000e+02,1.370837400000000059e+02
3.020000000000000000e+02,1.374529899999999998e+02
3.030000000000000000e+02,1.378215199999999925e+02
3.040000000000000000e+02,1.381893799999999999e+02
3.050000000000000000e+02,1.385565499999999872e+02
3.060000000000000000e+02,1.389230300000000113e+02
3.070000000000000000e+02,1.392888199999999870e+02
3.080000000000000000e+02,1.396539300000000026e+02
3.090000000000000000e+02,1.400183399999999949e+02
3.100000000000000000e+02,1.403820599999999956e+02
3.110000000000000000e+02,1.407451000000000079e+02
3.120000000000000000e+02,1.411074500000000000e+02
3.130000000000000000e+02,1.414691300000000069e+02
3.140000000000000000e+02,1.418301099999999906e+02
3.150000000000000000e+02,1.421904100000000142e+02
3.160000000000000000e+02,1.425500299999999925e+02
3.170000000000000000e+02,1.429089700000000107e+02
3.180000000000000000e+02,1.432672300000000121e+02
3.190000000000000000e+02,1.436247999999999934e+02
3.200000000000000000e+02,1.439816999999999894e+02
3.210000000000000000e+02,1.443379199999999969e+02
3.220000000000000000e+02,1.446934699999999907e+02
3.230000000000000000e+02,1.450483199999999897e+02
3.240000000000000000e+02,1.454025000000000034e+02
3.250000000000000000e+02,1.457559799999999939e+02
3.260000000000000000e+02,1.461088100000000054e+02
3.270000000000000000e+02,1.464609700000000032e+02
3.280000000000000000e+02,1.468124500000000126e+02
3.290000000000000000e+02,1.471632500000000050e+02
3.300000000000000000e+02,1.475133999999999901e+02
3.310000000000000000e+02,1.478628699999999867e+02
3.320000000000000000e+02,1.482116399999999885e+02
3.330000000000000000e+02,1.485597500000000082e+02
3.340000000000000000e+02,1.489071999999999889e+02
3.350000000000000000e+02,1.492539800000000128e+02
3.360000000000000000e+02,1.496000799999999913e+02
3.370000000000000000e+02,1.499455299999999909e+02
3.380000000000000000e+02,1.502903000000000020e+02
3.390000000000000000e+02,1.506343999999999994e+02
3.400000000000000000e+02,1.509778300000000115e+02
3.410000000000000000e+02,1.513206000000000131e+02
3.420000000000000000e+02,1.516627200000000073e+02
3.430000000000000000e+02,1.520041699999999878e+02
3.440000000000000000e+02,1.523449400000000082e+02
3.450000000000000000e+02,1.526850599999999929e+02
3.460000000000000000e+02,1.530245099999999923e+02
3.470000000000000000e+02,1.533633000000000095e+02
3.480000000000000000e+02,1.537014499999999941e+02
3.490000000000000000e+02,1.540389299999999935e+02
3.500000000000000000e+02,1.543757300000000043e+02
3.510000000000000000e+02,1.547119000000000142e+02
3.520000000000000000e+02,1.550473900000000071e+02
3.530000000000000000e+02,1.553822299999999927e+02
3.540000000000000000e+02,1.557164300000000026e+02
3.550000000000000000e+02,1.560499700000000018e+02
3.560000000000000000e+02,1.563828399999999874e+02
3.570000000000000000e+02,1.567150699999999972e+02
3.580000000000000000e+02,1.570466499999999996e+02
3.590000000000000000e+02,1.573775599999999883e+02
3.600000000000000000e+02,1.577078400000000045e+02
3.610000000000000000e+02,1.580374600000000100e+02
3.620000000000000000e+02,1.583664200000000051e+02
3.630000000000000000e+02,1.586947299999999927e+02
3.640000000000000000e+02,1.590224000000000046e+02
3.650000000000000000e+02,1.593494300000000123e+02
3.660000000000000000e+02,1.596758100000000127e+02
3.670000000000000000e+02,1.600015400000000056e+02
3.680000000000000000e+02,1.603266099999999881e+02
3.690000000000000000e+02,1.606510600000000011e+02
3.700000000000000000e+02,1.609748400000000004e+02
3.710000000000000000e+02,1.612980000000000018e+02
3.720000000000000000e+02,1.616205099999999959e+02
3.730000000000000000e+02,1.619423700000000110e+02
3.740000000000000000e+02,1.622635999999999967e+02
3.750000000000000000e+02,1.625841800000000035e+02
3.760000000000000000e+02,1.629041400000000124e+02
3.770000000000000000e+02,1.632234500000000139e+02
3.780000000000000000e+02,1.635421100000000081e+02
3.790000000000000000e+02,1.638601500000000044e+02
3.800000000000000000e+02,1.641775399999999934e+02
3.810000000000000000e+02,1.644943100000000129e+02
3.820000000000000000e+02,1.648104399999999998e+02
3.830000000000000000e+02,1.651259300000000110e+02
3.840000000000000000e+02,1.654407999999999959e+02
3.850000000000000000e+02,1.657549999999999955e+02
3.860000000000000000e+02,1.660686000000000035e+02
3.870000000000000000e+02,1.663815600000000074e+02
3.880000000000000000e+02,1.666938900000000103e+02
3.890000000000000000e+02,1.670055800000000090e+02
3.900000000000000000e+02,1.673166699999999878e+02
3.910000000000000000e+02,1.676271099999999876e+02
3.920000000000000000e+02,1.679369399999999928e+02
3.930000000000000000e+02,1.682461199999999906e+02
3.940000000000000000e+02,1.685546899999999937e+02
3.950000000000000000e+02,1.688626299999999958e+02
3.960000000000000000e+02,1.691699399999999969e+02
3.970000000000000000e+02,1.694766199999999969e+02
3.980000000000000000e+02,1.697826799999999992e+02
3.990000000000000000e+02,1.700881300000000067e+02
4.000000000000000000e+02,1.703929599999999880e+02
4.010000000000000000e+02,1.706971599999999967e+02
4.020000000000000000e+02,1.710007500000000107e+02
4.030000000000000000e+02,1.713037099999999953e+02
4.040000000000000000e+02,1.716060500000000104e+02
4.050000000000000000e+02,1.719077800000000025e+02
4.060000000000000000e+02,1.722088899999999967e+02
4.070000000000000000e+02,1.725093799999999931e+02
4.080000000000000000e+02,1.728092499999999916e+02
4.090000000000000000e+02,1.731085199999999986e+02
4.100000000000000000e+02,1.734071800000000110e+02
4.110000000000000000e+02,1.737052199999999971e+02
4.120000000000000000e+02,1.740026200000000074e+02
4.130000000000000000e+02,1.742994400000000041e+02
4.140000000000000000e+02,1.745956400000000031e+02
4.150000000000000000e+02,1.748912400000000105e+02
4.160000000000000000e+02,1.751862199999999916e+02
4.170000000000000000e+02,1.754805900000000065e+02
4.180000000000000000e+02,1.757743499999999983e+02
4.190000000000000000e+02,1.760674999999999955e+02
4.200000000000000000e+02,1.763600600000000043e+02
4.210000000000000000e+02,1.766520099999999900e+02
4.220000000000000000e+02,1.769433400000000063e+02
4.230000000000000000e+02,1.772340700000000027e+02
4.240000000000000000e+02,1.775242000000000075e+02
4.250000000000000000e+02,1.778137399999999957e+02
4.260000000000000000e+02,1.781026500000000112e+02
4.270000000000000000e+02,1.783909800000000132e+02
4.280000000000000000e+02,1.786786999999999921e+02
4.290000000000000000e+02,1.789658200000000079e+02
4.300000000000000000e+02,1.792523500000000070e+02
4.310000000000000000e+02,1.795382700000000114e+02
4.320000000000000000e+02,1.798235899999999958e+02
4.330000000000000000e+02,1.801083199999999920e+02
4.340000000000000000e+02,1.803924599999999998e+02
4.350000000000000000e+02,1.806760099999999909e+02
4.360000000000000000e+02,1.809589400000000126e+02
4.370000000000000000e+02,1.812412899999999922e+02
4.380000000000000000e+02,1.815230599999999868e+02
4.390000000000000000e+02,1.818042100000000119e+02
4.400000000000000000e+02,1.820847799999999950e+02
4.410000000000000000e+02,1.823647599999999898e+02
4.420000000000000000e+02,1.826441700000000026e+02
4.430000000000000000e+02,1.829229599999999891e+02
4.440000000000000000e+02,1.832011699999999905e+02
4.450000000000000000e+02,1.834787900000000036e+02
4.460000000000000000e+02,1.837558300000000031e+02
4.470000000000000000e+02,1.840322700000000111e+02
4.480000000000000000e+02,1.843081500000000119e+02
4.490000000000000000e+02,1.845834199999999896e+02
4.500000000000000000e+02,1.848581100000000106e+02
4.510000000000000000e+02,1.851322299999999927e+02
4.520000000000000000e+02,1.854057500000000118e+02
4.530000000000000000e+02,1.856786999999999921e+02
4.540000000000000000e+02,1.859510699999999872e+02
4.550000000000000000e+02,1.862228399999999908e+02
4.560000000000000000e+02,1.864940300000000093e+02
4.570000000000000000e+02,1.867646599999999921e+02
4.580000000000000000e+02,1.870346999999999866e+02
4.590000000000000000e+02,1.873041699999999992e+02
4.600000000000000000e+02,1.875730599999999981e+02
4.610000000000000000e+02,1.878413700000000119e+02
4.620000000000000000e+02,1.881091000000000122e+02
4.630000000000000000e+02,1.883762700000000052e+02
4.640000000000000000e+02,1.886428699999999878e+02
4.650000000000000000e+02,1.889088700000000074e+02
4.660000000000000000e+02,1.891743199999999945e+02
4.670000000000000000e+02,1.894391899999999964e+02
4.680000000000000000e+02,1.897034800000000132e+02
4.690000000000000000e+02,1.899672099999999944e+02
4.700000000000000000e+02,1.902303599999999904e+02
4.710000000000000000e+02,1.904929500000000075e+02
4.720000000000000000e+02,1.907549699999999859e+02
4.730000000000000000e+02,1.910164200000000108e+02
4.740000000000000000e+02,1.912772999999999968e+02
4.750000000000000000e+02,1.915376300000000072e+02
4.760000000000000000e+02,1.917973800000000040e+02
4.770000000000000000e+02,1.920565599999999904e+02
4.780000000000000000e+02,1.923152000000000044e+02
4.790000000000000000e+02,1.925732600000000048e+02
4.800000000000000000e+02,1.928307499999999948e+02
4.810000000000000000e+02,1.930876900000000091e+02
4.820000000000000000e+02,1.933440699999999879e+02
4.830000000000000000e+02,1.935998800000000131e+02
4.840000000000000000e+02,1.938551500000000090e+02
4.850000000000000000e+02,1.941098299999999881e+02
4.860000000000000000e+02,1.943639799999999980e+02
4.870000000000000000e+02,1.946175700000000006e+02
4.880000000000000000e+02,1.948705899999999929e+02
4.890000000000000000e+02,1.951230600000000095e+02
4.900000000000000000e+02,1.953749699999999905e+02
4.910000000000000000e+02,1.956263399999999990e+02
4.920000000000000000e+02,1.958771500000000003e+02
4.930000000000000000e+02,1.961274099999999976e+02
4.940000000000000000e+02,1.963771199999999908e+02
4.950000000000000000e+02,1.966262700000000052e+02
4.960000000000000000e+02,1.968748799999999903e+02
4.970000000000000000e+02,1.971229199999999935e+02
4.980000000000000000e+02,1.973704400000000021e+02
4.990000000000000000e+02,1.976173900000000003e+02
5.000000000000000000e+02,1.978638200000000040e+02
5.010000000000000000e+02,1.981096599999999910e+02
5.020000000000000000e+02,1.983549800000000118e+02
5.030000000000000000e+02,1.985997500000000002e+02
5.040000000000000000e+02,1.988439799999999877e+02
5.050000000000000000e+02,1.990876800000000060e+02
5.060000000000000000e+02,1.993308100000000138e+02
5.070000000000000000e+02,1.995734099999999955e+02
5.080000000000000000e+02,1.998154800000000080e+02
5.090000000000000000e+02,2.000569900000000132e+02
5.100000000000000000e+02,2.002979699999999923e+02
5.110000000000000000e+02,2.005384099999999989e+02
5.120000000000000000e+02,2.007783200000000079e+02
5.130000000000000000e+02,2.010176700000000096e+02
5.140000000000000000e+02,2.012564999999999884e+02
5.150000000000000000e+02,2.014948100000000011e+02
5.160000000000000000e+02,2.017325600000000065e+02
5.170000000000000000e+02,2.019697899999999890e+02
5.180000000000000000e+02,2.022064799999999991e+02
5.190000000000000000e+02,2.024426400000000115e+02
5.200000000000000000e+02,2.026782800000000009e+02
5.210000000000000000e+02,2.029133799999999894e+02
5.220000000000000000e+02,2.031479500000000087e+02
5.230000000000000000e+02,2.033819900000000018e+02
5.240000000000000000e+02,2.036154899999999941e+02
5.250000000000000000e+02,2.038484799999999950e+02
5.260000000000000000e+02,2.040809299999999951e+02
5.270000000000000000e+02,2.043128700000000038e+02
5.280000000000000000e+02,2.045442799999999863e+02
5.290000000000000000e+02,2.047751599999999996e+02
5.300000000000000000e+02,2.050055099999999868e+02
5.310000000000000000e+02,2.052353500000000111e+02
5.320000000000000000e+02,2.054646799999999871e+02
5.330000000000000000e+02,2.056934699999999907e+02
5.340000000000000000e+02,2.059217399999999998e+02
5.350000000000000000e+02,2.061494899999999859e+02
5.360000000000000000e+02,2.063767400000000123e+02
5.370000000000000000e+02,2.066034500000000094e+02
5.380000000000000000e+02,2.068296499999999867e+02
5.390000000000000000e+02,2.070553400000000011e+02
5.400000000000000000e+02,2.072805199999999957e+02
5.410000000000000000e+02,2.075051899999999989e+02
5.420000000000000000e+02,2.077293200000000013e+02
5.430000000000000000e+02,2.079529699999999934e+02
5.440000000000000000e+02,2.081760899999999879e+02
5.450000000000000000e+02,2.083986999999999910e+02
5.460000000000000000e+02,2.086208000000000027e+02
5.470000000000000000e+02,2.088423899999999946e+02
5.480000000000000000e+02,2.090634900000000016e+02
5.490000000000000000e+02,2.092840600000000109e+02
5.500000000000000000e+02,2.095041400000000067e+02
5.510000000000000000e+02,2.097237100000000112e+02
5.520000000000000000e+02,2.099427599999999927e+02
5.530000000000000000e+02,2.101613299999999924e+02
5.540000000000000000e+02,2.103793900000000008e+02
5.550000000000000000e+02,2.105969399999999894e+02
5.560000000000000000e+02,2.108139999999999930e+02
5.570000000000000000e+02,2.110305500000000052e+02
5.580000000000000000e+02,2.112466100000000040e+02
5.590000000000000000e+02,2.114621699999999862e+02
5.600000000000000000e+02,2.116772300000000087e+02
5.610000000000000000e+02,2.118917999999999893e+02
5.620000000000000000e+02,2.121058700000000101e+02
5.630000000000000000e+02,2.123194399999999860e+02
5.640000000000000000e+02,2.125325200000000052e+02
5.650000000000000000e+02,2.127451199999999858e+02
5.660000000000000000e+02,2.129572100000000034e+02
5.670000000000000000e+02,2.131688200000000109e+02
5.680000000000000000e+02,2.133799300000000017e+02
5.690000000000000000e+02,2.135905600000000106e+02
5.700000000000000000e+02,2.138006900000000030e+02
5.710000000000000000e+02,2.140103499999999883e+02
5.720000000000000000e+02,2.142195000000000107e+02
5.730000000000000000e+02,2.144281799999999976e+02
5.740000000000000000e+02,2.146363699999999994e+02
5.750000000000000000e+02,2.148440899999999942e+02
5.760000000000000000e+02,2.150513200000000040e+02
5.770000000000000000e+02,2.152580600000000004e+02
5.780000000000000000e+02,2.154643100000000118e+02
5.790000000000000000e+02,2.156700999999999908e+02
5.800000000000000000e+02,2.158754099999999880e+02
5.810000000000000000e+02,2.160802300000000002e+02
5.820000000000000000e+02,2.162845900000000086e+02
5.830000000000000000e+02,2.164884600000000034e+02
5.840000000000000000e+02,2.166918599999999913e+02
5.850000000000000000e+02,2.168947900000000004e+02
5.860000000000000000e+02,2.170972399999999993e+02
5.870000000000000000e+02,2.172992199999999912e+02
5.880000000000000000e+02,2.175007300000000043e+02
5.890000000000000000e+02,2.177017700000000104e+02
5.900000000000000000e+02,2.179023300000000063e+02
5.910000000000000000e+02,2.181024299999999982e+02
5.920000000000000000e+02,2.183020600000000115e+02
5.930000000000000000e+02,2.185012399999999957e+02
5.940000000000000000e+02,2.186999399999999980e+02
5.950000000000000000e+02,2.188981599999999901e+02
5.960000000000000000e+02,2.190959300000000098e+02
5.970000000000000000e+02,2.192932399999999973e+02
5.980000000000000000e+02,2.194900800000000061e+02
5.990000000000000000e+02,2.196864600000000110e+02