# Time [s], Temperature [C]
1.000000000000000000e+00,2.500000000000000000e+01
2.000000000000000000e+00,2.500000000000000000e+01
3.000000000000000000e+00,2.500000000000000000e+01
4.000000000000000000e+00,2.500000000000000000e+01
5.000000000000000000e+00,2.500000599999999906e+01
6.000000000000000000e+00,2.500002900000000139e+01
7.000000000000000000e+00,2.500011800000000051e+01
8.000000000000000000e+00,2.500041600000000130e+01
9.000000000000000000e+00,2.500123200000000168e+01
1.000000000000000000e+01,2.500318700000000049e+01
1.100000000000000000e+01,2.500733200000000167e+01
1.200000000000000000e+01,2.501526600000000045e+01
1.300000000000000000e+01,2.502919400000000039e+01
1.400000000000000000e+01,2.505190699999999993e+01
1.500000000000000000e+01,2.508672100000000071e+01
1.600000000000000000e+01,2.513736000000000104e+01
1.700000000000000000e+01,2.520781500000000008e+01
1.800000000000000000e+01,2.530221600000000137e+01
1.900000000000000000e+01,2.542469200000000029e+01
2.000000000000000000e+01,2.557927499999999910e+01
2.100000000000000000e+01,2.576978499999999883e+01
2.200000000000000000e+01,2.599980400000000103e+01
2.300000000000000000e+01,2.627259300000000053e+01
2.400000000000000000e+01,2.659105900000000133e+01
2.500000000000000000e+01,2.695779399999999981e+01
2.600000000000000000e+01,2.737500199999999850e+01
2.700000000000000000e+01,2.784453800000000001e+01
2.800000000000000000e+01,2.836792900000000017e+01
2.900000000000000000e+01,2.894633699999999976e+01
3.000000000000000000e+01,2.958068799999999854e+01
3.100000000000000000e+01,3.027154399999999868e+01
3.200000000000000000e+01,3.101927600000000140e+01
3.300000000000000000e+01,3.182396699999999967e+01
3.400000000000000000e+01,3.268549000000000149e+01
3.500000000000000000e+01,3.360359199999999902e+01
3.600000000000000000e+01,3.457776299999999736e+01
3.700000000000000000e+01,3.560740700000000203e+01
3.800000000000000000e+01,3.669170799999999844e+01
3.900000000000000000e+01,3.782985299999999995e+01
4.000000000000000000e+01,3.902085499999999740e+01
4.100000000000000000e+01,4.026364900000000091e+01
4.200000000000000000e+01,4.155711699999999809e+01
4.300000000000000000e+01,4.290000500000000017e+01
4.400000000000000000e+01,4.429111100000000079e+01
4.500000000000000000e+01,4.572916000000000025e+01
4.600000000000000000e+01,4.721278800000000331e+01
4.700000000000000000e+01,4.874061999999999983e+01
4.800000000000000000e+01,5.031129500000000121e+01
4.900000000000000000e+01,5.192342800000000125e+01
5.000000000000000000e+01,5.357558099999999968e+01
5.100000000000000000e+01,5.526634599999999864e+01
5.200000000000000000e+01,5.699425099999999844e+01
5.300000000000000000e+01,5.875787700000000058e+01
5.400000000000000000e+01,6.055582799999999821e+01
5.500000000000000000e+01,6.238660399999999839e+01
5.600000000000000000e+01,6.424884799999999530e+01
5.700000000000000000e+01,6.614109000000000549e+01
5.800000000000000000e+01,6.806197400000000641e+01
5.900000000000000000e+01,7.001001700000000483e+01
6.000000000000000000e+01,7.198394000000000403e+01
6.100000000000000000e+01,7.398237600000000214e+01
6.200000000000000000e+01,7.600398300000000518e+01
6.300000000000000000e+01,7.804748499999999467e+01
6.400000000000000000e+01,8.011143500000000017e+01
6.500000000000000000e+01,8.219462599999999952e+01
6.600000000000000000e+01,8.429588300000000345e+01
6.700000000000000000e+01,8.641397100000000364e+01
6.800000000000000000e+01,8.854773699999999792e+01
6.900000000000000000e+01,9.069601400000000524e+01
7.000000000000000000e+01,9.285781099999999810e+01
7.100000000000000000e+01,9.503192099999999698e+01
7.200000000000000000e+01,9.721739999999999782e+01
7.300000000000000000e+01,9.941333000000000197e+01
7.400000000000000000e+01,1.016186699999999945e+02
7.500000000000000000e+01,1.038326600000000042e+02
7.600000000000000000e+01,1.060544299999999964e+02
7.700000000000000000e+01,1.082830299999999966e+02
7.800000000000000000e+01,1.105179200000000037e+02
7.900000000000000000e+01,1.127581399999999974e+02
8.000000000000000000e+01,1.150032000000000068e+02
8.100000000000000000e+01,1.172523000000000053e+02
8.200000000000000000e+01,1.195049300000000017e+02
8.300000000000000000e+01,1.217605400000000060e+02
8.400000000000000000e+01,1.240183999999999997e+02
8.500000000000000000e+01,1.262781200000000013e+02
8.600000000000000000e+01,1.285392200000000003e+02
8.700000000000000000e+01,1.308010400000000004e+02
8.800000000000000000e+01,1.330633100000000013e+02
8.900000000000000000e+01,1.353255299999999863e+02
9.000000000000000000e+01,1.375871600000000115e+02
9.100000000000000000e+01,1.398479499999999973e+02
9.200000000000000000e+01,1.421074800000000096e+02
9.300000000000000000e+01,1.443652199999999937e+02
9.400000000000000000e+01,1.466210499999999968e+02
9.500000000000000000e+01,1.488744000000000085e+02
9.600000000000000000e+01,1.511251100000000065e+02
9.700000000000000000e+01,1.533728600000000029e+02
9.800000000000000000e+01,1.556171899999999937e+02
9.900000000000000000e+01,1.578579900000000009e+02
1.000000000000000000e+02,1.600949099999999987e+02
1.010000000000000000e+02,1.623276500000000055e+02
1.020000000000000000e+02,1.645561399999999992e+02
1.030000000000000000e+02,1.667799799999999948e+02
1.040000000000000000e+02,1.689991100000000017e+02
1.050000000000000000e+02,1.712132000000000005e+02
1.060000000000000000e+02,1.734221599999999910e+02
1.070000000000000000e+02,1.756256899999999916e+02
1.080000000000000000e+02,1.778237499999999898e+02
1.090000000000000000e+02,1.800160400000000038e+02
1.100000000000000000e+02,1.822024999999999864e+02
1.110000000000000000e+02,1.843828300000000127e+02
1.120000000000000000e+02,1.865570099999999911e+02
1.130000000000000000e+02,1.887247299999999939e+02
1.140000000000000000e+02,1.908859699999999862e+02
1.150000000000000000e+02,1.930406199999999899e+02
1.160000000000000000e+02,1.951884000000000015e+02
1.170000000000000000e+02,1.973292999999999893e+02
1.180000000000000000e+02,1.994630899999999940e+02
1.190000000000000000e+02,2.015896600000000092e+02
1.200000000000000000e+02,2.037090100000000064e+02
1.210000000000000000e+02,2.058209200000000010e+02
1.220000000000000000e+02,2.079252899999999897e+02
1.230000000000000000e+02,2.100220600000000104e+02
1.240000000000000000e+02,2.121112699999999904e+02
1.250000000000000000e+02,2.141926100000000019e+02
1.260000000000000000e+02,2.162660199999999975e+02
1.270000000000000000e+02,2.183314200000000085e+02
1.280000000000000000e+02,2.203887300000000096e+02
1.290000000000000000e+02,2.224379099999999880e+02
1.300000000000000000e+02,2.244789000000000101e+02
1.310000000000000000e+02,2.265116600000000062e+02
1.320000000000000000e+02,2.285359799999999950e+02
1.330000000000000000e+02,2.305518600000000049e+02
1.340000000000000000e+02,2.325592300000000137e+02
1.350000000000000000e+02,2.345580099999999959e+02
1.360000000000000000e+02,2.365481399999999894e+02
1.370000000000000000e+02,2.385295099999999877e+02
1.380000000000000000e+02,2.405020399999999938e+02
1.390000000000000000e+02,2.424656099999999981e+02
1.400000000000000000e+02,2.444202899999999943e+02
1.410000000000000000e+02,2.463659399999999948e+02
1.420000000000000000e+02,2.483024900000000059e+02
1.430000000000000000e+02,2.502298999999999864e+02
1.440000000000000000e+02,2.521481300000000090e+02
1.450000000000000000e+02,2.540570099999999911e+02
1.460000000000000000e+02,2.559566000000000088e+02
1.470000000000000000e+02,2.578468300000000113e+02
1.480000000000000000e+02,2.597276299999999765e+02
1.490000000000000000e+02,2.615988199999999892e+02
1.500000000000000000e+02,2.634604800000000182e+02
1.510000000000000000e+02,2.653125000000000000e+02
1.520000000000000000e+02,2.671547499999999786e+02
1.530000000000000000e+02,2.689873400000000174e+02
1.540000000000000000e+02,2.708100000000000023e+02
1.550000000000000000e+02,2.726227999999999838e+02
1.560000000000000000e+02,2.744255999999999744e+02
1.570000000000000000e+02,2.762184100000000058e+02
1.580000000000000000e+02,2.780011000000000081e+02
1.590000000000000000e+02,2.797736199999999940e+02
1.600000000000000000e+02,2.815358899999999949e+02
1.610000000000000000e+02,2.832878699999999981e+02
1.620000000000000000e+02,2.850293300000000158e+02
1.630000000000000000e+02,2.867602499999999850e+02
1.640000000000000000e+02,2.884806800000000067e+02
1.650000000000000000e+02,2.901904599999999732e+02
1.660000000000000000e+02,2.918894300000000044e+02
1.670000000000000000e+02,2.935775800000000118e+02
1.680000000000000000e+02,2.952547299999999950e+02
1.690000000000000000e+02,2.969209000000000174e+02
1.700000000000000000e+02,2.985758700000000090e+02
1.710000000000000000e+02,3.002195100000000139e+02
1.720000000000000000e+02,3.018516799999999876e+02
1.730000000000000000e+02,3.034722600000000057e+02
1.740000000000000000e+02,3.050811199999999985e+02
1.750000000000000000e+02,3.066780999999999722e+02
1.760000000000000000e+02,3.082630599999999959e+02
1.770000000000000000e+02,3.098358499999999935e+02
1.780000000000000000e+02,3.113962099999999964e+02
1.790000000000000000e+02,3.129440000000000168e+02
1.800000000000000000e+02,3.144791599999999789e+02
1.810000000000000000e+02,3.160013400000000274e+02
1.820000000000000000e+02,3.175104699999999980e+02
1.830000000000000000e+02,3.190062899999999786e+02
1.840000000000000000e+02,3.204885899999999879e+02
1.850000000000000000e+02,3.219571500000000128e+02
1.860000000000000000e+02,3.234118000000000279e+02
1.870000000000000000e+02,3.248523299999999949e+02
1.880000000000000000e+02,3.262784100000000080e+02
1.890000000000000000e+02,3.276899399999999787e+02
1.900000000000000000e+02,3.290866399999999885e+02
1.910000000000000000e+02,3.304682900000000245e+02
1.920000000000000000e+02,3.318345899999999915e+02
1.930000000000000000e+02,3.331853600000000029e+02
1.940000000000000000e+02,3.345204200000000014e+02
1.950000000000000000e+02,3.358394499999999994e+02
1.960000000000000000e+02,3.371422099999999773e+02
1.970000000000000000e+02,3.384285600000000045e+02
1.980000000000000000e+02,3.396982100000000173e+02
1.990000000000000000e+02,3.409509600000000091e+02
2.000000000000000000e+02,3.421866499999999860e+02
2.010000000000000000e+02,3.434049999999999727e+02
2.020000000000000000e+02,3.446058699999999817e+02
2.030000000000000000e+02,3.457890300000000252e+02
2.040000000000000000e+02,3.469543499999999767e+02
2.050000000000000000e+02,3.481017800000000193e+02
2.060000000000000000e+02,3.492311100000000010e+02
2.070000000000000000e+02,3.503422499999999786e+02
2.080000000000000000e+02,3.514350600000000213e+02
2.090000000000000000e+02,3.525094599999999900e+02
2.100000000000000000e+02,3.535654599999999732e+02
2.110000000000000000e+02,3.546030000000000086e+02
2.120000000000000000e+02,3.556220999999999890e+02
2.130000000000000000e+02,3.566227999999999838e+02
2.140000000000000000e+02,3.576050999999999931e+02
2.150000000000000000e+02,3.585691199999999981e+02
2.160000000000000000e+02,3.595150499999999738e+02
2.170000000000000000e+02,3.604429299999999898e+02
2.180000000000000000e+02,3.613528699999999958e+02
2.190000000000000000e+02,3.622452700000000050e+02
2.200000000000000000e+02,3.631202099999999859e+02
2.210000000000000000e+02,3.639779100000000085e+02
2.220000000000000000e+02,3.648187599999999975e+02
2.230000000000000000e+02,3.656430399999999850e+02
2.240000000000000000e+02,3.664511100000000283e+02
2.250000000000000000e+02,3.672433500000000208e+02
2.260000000000000000e+02,3.680201700000000073e+02
2.270000000000000000e+02,3.687819799999999759e+02
2.280000000000000000e+02,3.695292099999999778e+02
2.290000000000000000e+02,3.702623600000000010e+02
2.300000000000000000e+02,3.709819299999999771e+02
2.310000000000000000e+02,3.716883199999999761e+02
2.320000000000000000e+02,3.723821399999999926e+02
2.330000000000000000e+02,3.730638700000000085e+02
2.340000000000000000e+02,3.737341599999999744e+02
2.350000000000000000e+02,3.743935200000000236e+02
2.360000000000000000e+02,3.750424800000000118e+02
2.370000000000000000e+02,3.756816999999999780e+02
2.380000000000000000e+02,3.763116800000000239e+02
2.390000000000000000e+02,3.769330100000000243e+02
2.400000000000000000e+02,3.775464200000000119e+02
2.410000000000000000e+02,3.781523700000000190e+02
2.420000000000000000e+02,3.787515000000000214e+02
2.430000000000000000e+02,3.793443899999999758e+02
2.440000000000000000e+02,3.799316400000000158e+02
2.450000000000000000e+02,3.805138499999999908e+02
2.460000000000000000e+02,3.810916100000000029e+02
2.470000000000000000e+02,3.816654700000000275e+02
2.480000000000000000e+02,3.822359900000000152e+02
2.490000000000000000e+02,3.828037699999999859e+02
2.500000000000000000e+02,3.833693200000000161e+02
2.510000000000000000e+02,3.839332299999999805e+02
2.520000000000000000e+02,3.844959999999999809e+02
2.530000000000000000e+02,3.850582600000000184e+02
2.540000000000000000e+02,3.856204799999999864e+02
2.550000000000000000e+02,3.861831399999999803e+02
2.560000000000000000e+02,3.867467300000000137e+02
2.570000000000000000e+02,3.873119199999999864e+02
2.580000000000000000e+02,3.878789699999999812e+02
2.590000000000000000e+02,3.884486999999999739e+02
2.600000000000000000e+02,3.890212099999999964e+02
2.610000000000000000e+02,3.895971700000000055e+02
2.620000000000000000e+02,3.901770599999999831e+02
2.630000000000000000e+02,3.907612899999999740e+02
2.640000000000000000e+02,3.913505200000000173e+02
2.650000000000000000e+02,3.919450100000000248e+02
2.660000000000000000e+02,3.925453200000000038e+02
2.670000000000000000e+02,3.931517299999999864e+02
2.680000000000000000e+02,3.937651099999999929e+02
2.690000000000000000e+02,3.943855300000000170e+02
2.700000000000000000e+02,3.950134600000000091e+02
2.710000000000000000e+02,3.956496599999999830e+02
2.720000000000000000e+02,3.962941900000000146e+02
2.730000000000000000e+02,3.969480300000000170e+02
2.740000000000000000e+02,3.976115699999999720e+02
2.750000000000000000e+02,3.982853400000000192e+02
2.760000000000000000e+02,3.989694200000000137e+02
2.770000000000000000e+02,3.996645500000000197e+02
2.780000000000000000e+02,4.003715199999999754e+02
2.790000000000000000e+02,4.010906699999999887e+02
2.800000000000000000e+02,4.018224799999999846e+02
2.810000000000000000e+02,4.025677800000000275e+02
2.820000000000000000e+02,4.033269999999999982e+02
2.830000000000000000e+02,4.041009799999999927e+02
2.840000000000000000e+02,4.048902600000000120e+02
2.850000000000000000e+02,4.056955300000000193e+02
2.860000000000000000e+02,4.065175199999999904e+02
2.870000000000000000e+02,4.073570300000000088e+02
2.880000000000000000e+02,4.082149699999999939e+02
2.890000000000000000e+02,4.090917999999999779e+02
2.900000000000000000e+02,4.099883399999999938e+02
2.910000000000000000e+02,4.109058200000000056e+02
2.920000000000000000e+02,4.118452100000000087e+02
2.930000000000000000e+02,4.128072799999999916e+02
2.940000000000000000e+02,4.137930299999999875e+02
2.950000000000000000e+02,4.148032499999999914e+02
2.960000000000000000e+02,4.158395699999999806e+02
2.970000000000000000e+02,4.169028299999999945e+02
2.980000000000000000e+02,4.179941099999999778e+02
2.990000000000000000e+02,4.191149300000000153e+02
3.000000000000000000e+02,4.202663900000000012e+02
3.010000000000000000e+02,4.214497099999999818e+02
3.020000000000000000e+02,4.226661100000000033e+02
3.030000000000000000e+02,4.239168399999999792e+02
3.040000000000000000e+02,4.252034300000000258e+02
3.050000000000000000e+02,4.265271299999999997e+02
3.060000000000000000e+02,4.278888900000000035e+02
3.070000000000000000e+02,4.292909200000000283e+02
3.080000000000000000e+02,4.307328499999999849e+02
3.090000000000000000e+02,4.322167999999999779e+02
3.100000000000000000e+02,4.337429500000000075e+02
3.110000000000000000e+02,4.353110399999999913e+02
3.120000000000000000e+02,4.369227599999999825e+02
3.130000000000000000e+02,4.385772099999999796e+02
3.140000000000000000e+02,4.402736800000000130e+02
3.150000000000000000e+02,4.420114100000000121e+02
3.160000000000000000e+02,4.437874800000000164e+02
3.170000000000000000e+02,4.455997600000000034e+02
3.180000000000000000e+02,4.474456799999999816e+02
3.190000000000000000e+02,4.493200699999999870e+02
3.200000000000000000e+02,4.512178999999999860e+02
3.210000000000000000e+02,4.531334800000000200e+02
3.220000000000000000e+02,4.550606399999999780e+02
3.230000000000000000e+02,4.569924300000000130e+02
3.240000000000000000e+02,4.589209900000000175e+02
3.250000000000000000e+02,4.608401499999999942e+02
3.260000000000000000e+02,4.627434400000000210e+02
3.270000000000000000e+02,4.646250600000000190e+02
3.280000000000000000e+02,4.664813500000000204e+02
3.290000000000000000e+02,4.683091099999999756e+02
3.300000000000000000e+02,4.701065399999999954e+02
3.310000000000000000e+02,4.718731999999999971e+02
3.320000000000000000e+02,4.736102300000000014e+02
3.330000000000000000e+02,4.753178700000000276e+02
3.340000000000000000e+02,4.769982600000000161e+02
3.350000000000000000e+02,4.786532000000000266e+02
3.360000000000000000e+02,4.802844799999999736e+02
3.370000000000000000e+02,4.818935200000000236e+02
3.380000000000000000e+02,4.834813500000000204e+02
3.390000000000000000e+02,4.850496800000000235e+02
3.400000000000000000e+02,4.865993700000000217e+02
3.410000000000000000e+02,4.881309200000000033e+02
3.420000000000000000e+02,4.896456000000000017e+02
3.430000000000000000e+02,4.911440400000000182e+02
3.440000000000000000e+02,4.926263999999999896e+02
3.450000000000000000e+02,4.940937799999999811e+02
3.460000000000000000e+02,4.955465699999999742e+02
3.470000000000000000e+02,4.969849899999999820e+02
3.480000000000000000e+02,4.984096400000000244e+02
3.490000000000000000e+02,4.998209800000000200e+02
3.500000000000000000e+02,5.012194200000000137e+02
3.510000000000000000e+02,5.026050399999999740e+02
3.520000000000000000e+02,5.039783899999999903e+02
3.530000000000000000e+02,5.053395100000000184e+02
3.540000000000000000e+02,5.066891200000000026e+02
3.550000000000000000e+02,5.080271299999999997e+02
3.560000000000000000e+02,5.093537900000000036e+02
3.570000000000000000e+02,5.106697100000000091e+02
3.580000000000000000e+02,5.119746700000000033e+02
3.590000000000000000e+02,5.132690400000000182e+02
3.600000000000000000e+02,5.145530999999999722e+02
3.610000000000000000e+02,5.158269699999999602e+02
3.620000000000000000e+02,5.170910000000000082e+02
3.630000000000000000e+02,5.183450299999999515e+02
3.640000000000000000e+02,5.195893600000000561e+02
3.650000000000000000e+02,5.208242199999999684e+02
3.660000000000000000e+02,5.220497400000000425e+02
3.670000000000000000e+02,5.232660499999999502e+02
3.680000000000000000e+02,5.244732699999999568e+02
3.690000000000000000e+02,5.256716300000000501e+02
3.700000000000000000e+02,5.268610800000000154e+02
3.710000000000000000e+02,5.280419299999999794e+02
3.720000000000000000e+02,5.292141100000000051e+02
3.730000000000000000e+02,5.303778099999999540e+02
3.740000000000000000e+02,5.315331400000000031e+02
3.750000000000000000e+02,5.326801799999999503e+02
3.760000000000000000e+02,5.338189700000000357e+02
3.770000000000000000e+02,5.349497099999999818e+02
3.780000000000000000e+02,5.360723900000000413e+02
3.790000000000000000e+02,5.371873799999999619e+02
3.800000000000000000e+02,5.382944899999999961e+02
3.810000000000000000e+02,5.393936800000000176e+02
3.820000000000000000e+02,5.404853500000000395e+02
3.830000000000000000e+02,5.415695200000000114e+02
3.840000000000000000e+02,5.426462400000000343e+02
3.850000000000000000e+02,5.437153899999999567e+02
3.860000000000000000e+02,5.447771599999999808e+02
3.870000000000000000e+02,5.458317299999999932e+02
3.880000000000000000e+02,5.468790299999999434e+02
3.890000000000000000e+02,5.479191899999999578e+02
3.900000000000000000e+02,5.489522100000000364e+02
3.910000000000000000e+02,5.499782699999999522e+02
3.920000000000000000e+02,5.509974399999999832e+02
3.930000000000000000e+02,5.520095199999999522e+02
3.940000000000000000e+02,5.530148900000000367e+02
3.950000000000000000e+02,5.540133100000000468e+02
3.960000000000000000e+02,5.550050700000000461e+02
3.970000000000000000e+02,5.559901099999999587e+02
3.980000000000000000e+02,5.569685699999999997e+02
3.990000000000000000e+02,5.579403099999999540e+02
4.000000000000000000e+02,5.589053999999999860e+02
4.010000000000000000e+02,5.598641999999999825e+02
4.020000000000000000e+02,5.608165900000000192e+02
4.030000000000000000e+02,5.617624499999999443e+02
4.040000000000000000e+02,5.627020899999999983e+02
4.050000000000000000e+02,5.636354400000000169e+02
4.060000000000000000e+02,5.645624400000000378e+02
4.070000000000000000e+02,5.654832800000000361e+02
4.080000000000000000e+02,5.663978899999999612e+02
4.090000000000000000e+02,5.673062700000000405e+02
4.100000000000000000e+02,5.682087999999999965e+02
4.110000000000000000e+02,5.691052899999999681e+02
4.120000000000000000e+02,5.699956700000000183e+02
4.130000000000000000e+02,5.708799999999999955e+02
4.140000000000000000e+02,5.717584799999999632e+02
4.150000000000000000e+02,5.726310999999999467e+02
4.160000000000000000e+02,5.734979200000000219e+02
4.170000000000000000e+02,5.743588899999999740e+02
4.180000000000000000e+02,5.752141100000000051e+02
4.190000000000000000e+02,5.760635399999999890e+02
4.200000000000000000e+02,5.769072899999999890e+02
4.210000000000000000e+02,5.777454800000000432e+02
4.220000000000000000e+02,5.785779400000000123e+02
4.230000000000000000e+02,5.794047900000000482e+02
4.240000000000000000e+02,5.802261999999999489e+02
4.250000000000000000e+02,5.810419900000000553e+02
4.260000000000000000e+02,5.818523599999999760e+02
4.270000000000000000e+02,5.826572899999999890e+02
4.280000000000000000e+02,5.834568500000000313e+02
4.290000000000000000e+02,5.842510399999999890e+02
4.300000000000000000e+02,5.850397900000000391e+02
4.310000000000000000e+02,5.858233000000000175e+02
4.320000000000000000e+02,5.866015599999999495e+02
4.330000000000000000e+02,5.873745699999999488e+02
4.340000000000000000e+02,5.881423300000000154e+02
4.350000000000000000e+02,5.889049099999999726e+02
4.360000000000000000e+02,5.896624100000000226e+02
4.370000000000000000e+02,5.904148599999999760e+02
4.380000000000000000e+02,5.911621699999999464e+02
4.390000000000000000e+02,5.919044800000000350e+02
4.400000000000000000e+02,5.926417800000000398e+02
4.410000000000000000e+02,5.933740800000000490e+02
4.420000000000000000e+02,5.941014400000000251e+02
4.430000000000000000e+02,5.948237900000000309e+02
4.440000000000000000e+02,5.955412599999999657e+02
4.450000000000000000e+02,5.962539699999999812e+02
4.460000000000000000e+02,5.969618500000000267e+02
4.470000000000000000e+02,5.976648599999999760e+02
4.480000000000000000e+02,5.983632199999999557e+02
4.490000000000000000e+02,5.990567600000000539e+02
4.500000000000000000e+02,5.997456700000000183e+02
4.510000000000000000e+02,6.004297500000000127e+02
4.520000000000000000e+02,6.011092499999999745e+02
4.530000000000000000e+02,6.017842399999999543e+02
4.540000000000000000e+02,6.024545299999999770e+02
4.550000000000000000e+02,6.031202399999999670e+02
4.560000000000000000e+02,6.037815600000000131e+02
4.570000000000000000e+02,6.044382299999999759e+02
4.580000000000000000e+02,6.050905199999999695e+02
4.590000000000000000e+02,6.057383999999999560e+02
4.600000000000000000e+02,6.063817099999999982e+02
4.610000000000000000e+02,6.070207500000000209e+02
4.620000000000000000e+02,6.076553999999999860e+02
4.630000000000000000e+02,6.082856399999999439e+02
4.640000000000000000e+02,6.089116800000000467e+02
4.650000000000000000e+02,6.095333299999999781e+02
4.660000000000000000e+02,6.101508800000000292e+02
4.670000000000000000e+02,6.107640400000000227e+02
4.680000000000000000e+02,6.113731099999999969e+02
4.690000000000000000e+02,6.119779099999999517e+02
4.700000000000000000e+02,6.125786100000000260e+02
4.710000000000000000e+02,6.131751699999999801e+02
4.720000000000000000e+02,6.137676999999999907e+02
4.730000000000000000e+02,6.143560800000000199e+02
4.740000000000000000e+02,6.149404299999999921e+02
4.750000000000000000e+02,6.155206899999999450e+02
4.760000000000000000e+02,6.160971100000000433e+02
4.770000000000000000e+02,6.166694300000000339e+02
4.780000000000000000e+02,6.172378499999999804e+02
4.790000000000000000e+02,6.178023699999999963e+02
4.800000000000000000e+02,6.183630399999999554e+02
4.810000000000000000e+02,6.189197400000000471e+02
4.820000000000000000e+02,6.194726600000000190e+02
4.830000000000000000e+02,6.200217300000000478e+02
4.840000000000000000e+02,6.205670199999999568e+02
4.850000000000000000e+02,6.211085799999999608e+02
4.860000000000000000e+02,6.216464200000000346e+02
4.870000000000000000e+02,6.221804200000000264e+02
4.880000000000000000e+02,6.227107499999999618e+02
4.890000000000000000e+02,6.232375500000000557e+02
4.900000000000000000e+02,6.237605600000000550e+02
4.910000000000000000e+02,6.242799700000000485e+02
4.920000000000000000e+02,6.247957800000000361e+02
4.930000000000000000e+02,6.253080400000000054e+02
4.940000000000000000e+02,6.258166499999999814e+02
4.950000000000000000e+02,6.263218399999999519e+02
4.960000000000000000e+02,6.268234899999999925e+02
4.970000000000000000e+02,6.273215900000000147e+02
4.980000000000000000e+02,6.278162200000000439e+02
4.990000000000000000e+02,6.283075000000000045e+02
5.000000000000000000e+02,6.287953499999999849e+02
5.010000000000000000e+02,6.292797900000000482e+02
5.020000000000000000e+02,6.297608000000000175e+02
5.030000000000000000e+02,6.302383999999999560e+02
5.040000000000000000e+02,6.307127699999999777e+02
5.050000000000000000e+02,6.311838400000000320e+02
5.060000000000000000e+02,6.316516100000000051e+02
5.070000000000000000e+02,6.321160899999999856e+02
5.080000000000000000e+02,6.325773299999999608e+02
5.090000000000000000e+02,6.330353400000000192e+02
5.100000000000000000e+02,6.334901700000000346e+02
5.110000000000000000e+02,6.339418299999999817e+02
5.120000000000000000e+02,6.343902600000000120e+02
5.130000000000000000e+02,6.348356300000000374e+02
5.140000000000000000e+02,6.352778299999999945e+02
5.150000000000000000e+02,6.357168599999999969e+02
5.160000000000000000e+02,6.361528899999999567e+02
5.170000000000000000e+02,6.365858200000000124e+02
5.180000000000000000e+02,6.370156899999999496e+02
5.190000000000000000e+02,6.374425700000000461e+02
5.200000000000000000e+02,6.378664599999999609e+02
5.210000000000000000e+02,6.382874100000000226e+02
5.220000000000000000e+02,6.387053799999999910e+02
5.230000000000000000e+02,6.391204199999999673e+02
5.240000000000000000e+02,6.395325299999999515e+02
5.250000000000000000e+02,6.399417700000000195e+02
5.260000000000000000e+02,6.403481399999999439e+02
5.270000000000000000e+02,6.407515899999999647e+02
5.280000000000000000e+02,6.411522200000000566e+02
5.290000000000000000e+02,6.415499899999999798e+02
5.300000000000000000e+02,6.419449499999999489e+02
5.310000000000000000e+02,6.423371600000000399e+02
5.320000000000000000e+02,6.427265599999999495e+02
5.330000000000000000e+02,6.431132199999999557e+02
5.340000000000000000e+02,6.434971900000000460e+02
5.350000000000000000e+02,6.438784200000000055e+02
5.360000000000000000e+02,6.442570200000000114e+02
5.370000000000000000e+02,6.446328700000000254e+02
5.380000000000000000e+02,6.450060999999999467e+02
5.390000000000000000e+02,6.453767100000000028e+02
5.400000000000000000e+02,6.457446300000000292e+02
5.410000000000000000e+02,6.461099900000000389e+02
5.420000000000000000e+02,6.464727199999999812e+02
5.430000000000000000e+02,6.468328900000000203e+02
5.440000000000000000e+02,6.471905500000000302e+02
5.450000000000000000e+02,6.475455899999999474e+02
5.460000000000000000e+02,6.478981300000000374e+02
5.470000000000000000e+02,6.482482300000000350e+02
5.480000000000000000e+02,6.485957600000000411e+02
5.490000000000000000e+02,6.489408600000000433e+02
5.500000000000000000e+02,6.492835700000000543e+02
5.510000000000000000e+02,6.496237800000000107e+02
5.520000000000000000e+02,6.499616099999999506e+02
5.530000000000000000e+02,6.502970000000000255e+02
5.540000000000000000e+02,6.506299999999999955e+02
5.550000000000000000e+02,6.509606300000000374e+02
5.560000000000000000e+02,6.512889400000000251e+02
5.570000000000000000e+02,6.516149299999999585e+02
5.580000000000000000e+02,6.519385399999999890e+02
5.590000000000000000e+02,6.522598299999999654e+02
5.600000000000000000e+02,6.525788599999999633e+02
5.610000000000000000e+02,6.528956299999999828e+02
5.620000000000000000e+02,6.532102099999999609e+02
5.630000000000000000e+02,6.535223999999999478e+02
5.640000000000000000e+02,6.538324599999999691e+02
5.650000000000000000e+02,6.541402600000000120e+02
5.660000000000000000e+02,6.544458600000000388e+02
5.670000000000000000e+02,6.547493299999999863e+02
5.680000000000000000e+02,6.550506000000000313e+02
5.690000000000000000e+02,6.553497300000000223e+02
5.700000000000000000e+02,6.556466699999999719e+02
5.710000000000000000e+02,6.559415299999999434e+02
5.720000000000000000e+02,6.562342499999999745e+02
5.730000000000000000e+02,6.565249000000000024e+02
5.740000000000000000e+02,6.568134800000000268e+02
5.750000000000000000e+02,6.570999799999999595e+02
5.760000000000000000e+02,6.573844000000000278e+02
5.770000000000000000e+02,6.576668100000000550e+02
5.780000000000000000e+02,6.579471999999999525e+02
5.790000000000000000e+02,6.582255199999999604e+02
5.800000000000000000e+02,6.585019499999999653e+02
5.810000000000000000e+02,6.587763700000000426e+02
5.820000000000000000e+02,6.590487699999999904e+02
5.830000000000000000e+02,6.593192099999999982e+02
5.840000000000000000e+02,6.595877699999999777e+02
5.850000000000000000e+02,6.598543100000000550e+02
5.860000000000000000e+02,6.601190800000000536e+02
5.870000000000000000e+02,6.603818400000000111e+02
5.880000000000000000e+02,6.606426999999999907e+02
5.890000000000000000e+02,6.609017900000000054e+02
5.900000000000000000e+02,6.611589400000000296e+02
5.910000000000000000e+02,6.614141799999999876e+02
5.920000000000000000e+02,6.616677200000000312e+02
5.930000000000000000e+02,6.619193699999999581e+02
5.940000000000000000e+02,6.621691899999999578e+02
5.950000000000000000e+02,6.624172399999999925e+02
5.960000000000000000e+02,6.626634500000000116e+02
5.970000000000000000e+02,6.629079600000000028e+02
5.980000000000000000e+02,6.631507000000000289e+02
5.990000000000000000e+02,6.633916600000000017e+02