# Time [s], Temperature [C]
1.000000000000000000e+00,2.499997099999999861e+01
2.000000000000000000e+00,7.740573100000000295e+01
3.000000000000000000e+00,1.061627000000000010e+02
4.000000000000000000e+00,1.295329600000000028e+02
5.000000000000000000e+00,1.488383300000000133e+02
6.000000000000000000e+00,1.656932500000000061e+02
7.000000000000000000e+00,1.806760999999999910e+02
8.000000000000000000e+00,1.942373000000000047e+02
9.000000000000000000e+00,2.066472599999999886e+02
1.000000000000000000e+01,2.181063499999999920e+02
1.100000000000000000e+01,2.287623600000000010e+02
1.200000000000000000e+01,2.387287399999999877e+02
1.300000000000000000e+01,2.480941300000000069e+02
1.400000000000000000e+01,2.569363700000000108e+02
1.500000000000000000e+01,2.653180500000000279e+02
1.600000000000000000e+01,2.732987400000000093e+02
1.700000000000000000e+01,2.809328899999999862e+02
1.800000000000000000e+01,2.882655599999999936e+02
1.900000000000000000e+01,2.953280899999999747e+02
2.000000000000000000e+01,3.021350100000000225e+02
2.100000000000000000e+01,3.086771200000000022e+02
2.200000000000000000e+01,3.149436600000000226e+02
2.300000000000000000e+01,3.209328899999999862e+02
2.400000000000000000e+01,3.266494799999999827e+02
2.500000000000000000e+01,3.321102599999999825e+02
2.600000000000000000e+01,3.373379499999999780e+02
2.700000000000000000e+01,3.423475000000000250e+02
2.800000000000000000e+01,3.471565600000000131e+02
2.900000000000000000e+01,3.517819200000000137e+02
3.000000000000000000e+01,3.562301299999999742e+02
3.100000000000000000e+01,3.605120200000000068e+02
3.200000000000000000e+01,3.646376999999999953e+02
3.300000000000000000e+01,3.686099899999999820e+02
3.400000000000000000e+01,3.724345700000000079e+02
3.500000000000000000e+01,3.761193499999999972e+02
3.600000000000000000e+01,3.796651899999999955e+02
3.700000000000000000e+01,3.830763900000000035e+02
3.800000000000000000e+01,3.863573299999999904e+02
3.900000000000000000e+01,3.895094900000000280e+02
4.000000000000000000e+01,3.925357399999999757e+02
4.100000000000000000e+01,3.954419599999999946e+02
4.200000000000000000e+01,3.982302199999999743e+02
4.300000000000000000e+01,4.009046599999999785e+02
4.400000000000000000e+01,4.034718300000000113e+02
4.500000000000000000e+01,4.059362199999999916e+02
4.600000000000000000e+01,4.083043799999999806e+02
4.700000000000000000e+01,4.105828599999999824e+02
4.800000000000000000e+01,4.127789300000000026e+02
4.900000000000000000e+01,4.149009399999999914e+02
5.000000000000000000e+01,4.169564500000000180e+02
5.100000000000000000e+01,4.189539500000000203e+02
5.200000000000000000e+01,4.209021000000000186e+02
5.300000000000000000e+01,4.228042599999999993e+02
5.400000000000000000e+01,4.246745599999999854e+02
5.500000000000000000e+01,4.265180700000000229e+02
5.600000000000000000e+01,4.283382300000000100e+02
5.700000000000000000e+01,4.301500199999999836e+02
5.800000000000000000e+01,4.319517200000000230e+02
5.900000000000000000e+01,4.337504599999999755e+02
6.000000000000000000e+01,4.355558800000000019e+02
6.100000000000000000e+01,4.373643200000000206e+02
6.200000000000000000e+01,4.391845400000000268e+02
6.300000000000000000e+01,4.410133400000000279e+02
6.400000000000000000e+01,4.428570599999999899e+02
6.500000000000000000e+01,4.447106299999999806e+02
6.600000000000000000e+01,4.465728799999999978e+02
6.700000000000000000e+01,4.484407699999999863e+02
6.800000000000000000e+01,4.503104900000000157e+02
6.900000000000000000e+01,4.521728800000000206e+02
7.000000000000000000e+01,4.540223700000000235e+02
7.100000000000000000e+01,4.558521099999999819e+02
7.200000000000000000e+01,4.576554600000000050e+02
7.300000000000000000e+01,4.594205900000000042e+02
7.400000000000000000e+01,4.611477699999999800e+02
7.500000000000000000e+01,4.628265099999999848e+02
7.600000000000000000e+01,4.644614900000000262e+02
7.700000000000000000e+01,4.660531899999999723e+02
7.800000000000000000e+01,4.676024499999999762e+02
7.900000000000000000e+01,4.691141700000000014e+02
8.000000000000000000e+01,4.705968300000000113e+02
8.100000000000000000e+01,4.720559400000000210e+02
8.200000000000000000e+01,4.734903899999999908e+02
8.300000000000000000e+01,4.749137000000000057e+02
8.400000000000000000e+01,4.763272999999999797e+02
8.500000000000000000e+01,4.777285800000000222e+02
8.600000000000000000e+01,4.791304299999999898e+02
8.700000000000000000e+01,4.805192000000000121e+02
8.800000000000000000e+01,4.819072899999999890e+02
8.900000000000000000e+01,4.832846400000000244e+02
9.000000000000000000e+01,4.846575000000000273e+02
9.100000000000000000e+01,4.860142500000000041e+02
9.200000000000000000e+01,4.873651100000000156e+02
9.300000000000000000e+01,4.886948499999999740e+02
9.400000000000000000e+01,4.900125699999999824e+02
9.500000000000000000e+01,4.913094800000000077e+02
9.600000000000000000e+01,4.925884699999999725e+02
9.700000000000000000e+01,4.938366399999999885e+02
9.800000000000000000e+01,4.950689399999999978e+02
9.900000000000000000e+01,4.962790800000000218e+02
1.000000000000000000e+02,4.974623399999999833e+02
1.010000000000000000e+02,4.986313499999999976e+02
1.020000000000000000e+02,4.997759399999999914e+02
1.030000000000000000e+02,5.009067699999999945e+02
1.040000000000000000e+02,5.020257899999999722e+02
1.050000000000000000e+02,5.031303100000000086e+02
1.060000000000000000e+02,5.042229300000000194e+02
1.070000000000000000e+02,5.053112800000000107e+02
1.080000000000000000e+02,5.063910200000000259e+02
1.090000000000000000e+02,5.074635000000000105e+02
1.100000000000000000e+02,5.085317999999999756e+02
1.110000000000000000e+02,5.095946400000000267e+02
1.120000000000000000e+02,5.106543599999999969e+02
1.130000000000000000e+02,5.117050500000000284e+02
1.140000000000000000e+02,5.127493299999999863e+02
1.150000000000000000e+02,5.137873499999999467e+02
1.160000000000000000e+02,5.148141500000000406e+02
1.170000000000000000e+02,5.158311200000000554e+02
1.180000000000000000e+02,5.168397200000000566e+02
1.190000000000000000e+02,5.178338599999999587e+02
1.200000000000000000e+02,5.188205000000000382e+02
1.210000000000000000e+02,5.197885099999999738e+02
1.220000000000000000e+02,5.207500000000000000e+02
1.230000000000000000e+02,5.216972700000000032e+02
1.240000000000000000e+02,5.226346999999999525e+02
1.250000000000000000e+02,5.235620699999999488e+02
1.260000000000000000e+02,5.244736900000000333e+02
1.270000000000000000e+02,5.253814700000000357e+02
1.280000000000000000e+02,5.262843000000000302e+02
1.290000000000000000e+02,5.271759600000000319e+02
1.300000000000000000e+02,5.280577399999999670e+02
1.310000000000000000e+02,5.289431799999999839e+02
1.320000000000000000e+02,5.298165299999999434e+02
1.330000000000000000e+02,5.306888400000000274e+02
1.340000000000000000e+02,5.315537699999999859e+02
1.350000000000000000e+02,5.324140599999999495e+02
1.360000000000000000e+02,5.332688600000000179e+02
1.370000000000000000e+02,5.341177999999999884e+02
1.380000000000000000e+02,5.349650900000000320e+02
1.390000000000000000e+02,5.358022499999999582e+02
1.400000000000000000e+02,5.366370200000000068e+02
1.410000000000000000e+02,5.374637500000000045e+02
1.420000000000000000e+02,5.382774699999999939e+02
1.430000000000000000e+02,5.390933800000000247e+02
1.440000000000000000e+02,5.398950200000000450e+02
1.450000000000000000e+02,5.406916499999999814e+02
1.460000000000000000e+02,5.414812600000000202e+02
1.470000000000000000e+02,5.422605600000000550e+02
1.480000000000000000e+02,5.430364399999999705e+02
1.490000000000000000e+02,5.438054799999999886e+02
1.500000000000000000e+02,5.445679900000000089e+02
1.510000000000000000e+02,5.453242800000000443e+02
1.520000000000000000e+02,5.460781899999999496e+02
1.530000000000000000e+02,5.468258700000000090e+02
1.540000000000000000e+02,5.475686600000000226e+02
1.550000000000000000e+02,5.483053599999999506e+02
1.560000000000000000e+02,5.490393699999999626e+02
1.570000000000000000e+02,5.497690400000000182e+02
1.580000000000000000e+02,5.504976199999999835e+02
1.590000000000000000e+02,5.512175300000000107e+02
1.600000000000000000e+02,5.519340799999999945e+02
1.610000000000000000e+02,5.526433100000000422e+02
1.620000000000000000e+02,5.533496699999999464e+02
1.630000000000000000e+02,5.540532200000000103e+02
1.640000000000000000e+02,5.547492099999999482e+02
1.650000000000000000e+02,5.554417099999999436e+02
1.660000000000000000e+02,5.561268300000000409e+02
1.670000000000000000e+02,5.568104200000000219e+02
1.680000000000000000e+02,5.574847399999999880e+02
1.690000000000000000e+02,5.581548500000000104e+02
1.700000000000000000e+02,5.588207400000000007e+02
1.710000000000000000e+02,5.594841900000000123e+02
1.720000000000000000e+02,5.601392200000000230e+02
1.730000000000000000e+02,5.607923600000000306e+02
1.740000000000000000e+02,5.614412200000000439e+02
1.750000000000000000e+02,5.620836799999999585e+02
1.760000000000000000e+02,5.627295500000000175e+02
1.770000000000000000e+02,5.633637700000000450e+02
1.780000000000000000e+02,5.639956700000000183e+02
1.790000000000000000e+02,5.646254900000000134e+02
1.800000000000000000e+02,5.652481699999999591e+02
1.810000000000000000e+02,5.658703000000000429e+02
1.820000000000000000e+02,5.664856600000000526e+02
1.830000000000000000e+02,5.671032099999999900e+02
1.840000000000000000e+02,5.677089799999999968e+02
1.850000000000000000e+02,5.683147000000000162e+02
1.860000000000000000e+02,5.689159499999999525e+02
1.870000000000000000e+02,5.695098299999999654e+02
1.880000000000000000e+02,5.701071799999999712e+02
1.890000000000000000e+02,5.706924999999999955e+02
1.900000000000000000e+02,5.712776499999999942e+02
1.910000000000000000e+02,5.718556499999999687e+02
1.920000000000000000e+02,5.724359699999999975e+02
1.930000000000000000e+02,5.730070799999999736e+02
1.940000000000000000e+02,5.735743400000000065e+02
1.950000000000000000e+02,5.741425199999999904e+02
1.960000000000000000e+02,5.747010500000000093e+02
1.970000000000000000e+02,5.752608599999999797e+02
1.980000000000000000e+02,5.758145799999999781e+02
1.990000000000000000e+02,5.763660300000000234e+02
2.000000000000000000e+02,5.769129599999999982e+02
2.010000000000000000e+02,5.774570300000000316e+02
2.020000000000000000e+02,5.779986599999999726e+02
2.030000000000000000e+02,5.785386999999999489e+02
2.040000000000000000e+02,5.790692699999999604e+02
2.050000000000000000e+02,5.795995500000000220e+02
2.060000000000000000e+02,5.801272599999999784e+02
2.070000000000000000e+02,5.806477099999999609e+02
2.080000000000000000e+02,5.811701000000000477e+02
2.090000000000000000e+02,5.816843900000000076e+02
2.100000000000000000e+02,5.821959799999999632e+02
2.110000000000000000e+02,5.827042199999999639e+02
2.120000000000000000e+02,5.832113600000000133e+02
2.130000000000000000e+02,5.837107499999999618e+02
2.140000000000000000e+02,5.842112399999999752e+02
2.150000000000000000e+02,5.847057499999999663e+02
2.160000000000000000e+02,5.851992199999999684e+02
2.170000000000000000e+02,5.856839599999999564e+02
2.180000000000000000e+02,5.861730300000000398e+02
2.190000000000000000e+02,5.866532600000000457e+02
2.200000000000000000e+02,5.871328700000000254e+02
2.210000000000000000e+02,5.876104100000000017e+02
2.220000000000000000e+02,5.880799600000000282e+02
2.230000000000000000e+02,5.885504200000000310e+02
2.240000000000000000e+02,5.890147699999999986e+02
2.250000000000000000e+02,5.894778400000000147e+02
2.260000000000000000e+02,5.899372600000000375e+02
2.270000000000000000e+02,5.903927599999999529e+02
2.280000000000000000e+02,5.908446699999999510e+02
2.290000000000000000e+02,5.912964500000000498e+02
2.300000000000000000e+02,5.917417000000000371e+02
2.310000000000000000e+02,5.921863399999999729e+02
2.320000000000000000e+02,5.926265300000000025e+02
2.330000000000000000e+02,5.930629900000000134e+02
2.340000000000000000e+02,5.934974999999999454e+02
2.350000000000000000e+02,5.939287100000000237e+02
2.360000000000000000e+02,5.943573599999999715e+02
2.370000000000000000e+02,5.947792399999999589e+02
2.380000000000000000e+02,5.952027600000000120e+02
2.390000000000000000e+02,5.956222500000000082e+02
2.400000000000000000e+02,5.960386399999999867e+02
2.410000000000000000e+02,5.964493400000000065e+02
2.420000000000000000e+02,5.968597399999999880e+02
2.430000000000000000e+02,5.972676400000000285e+02
2.440000000000000000e+02,5.976717499999999745e+02
2.450000000000000000e+02,5.980717799999999897e+02
2.460000000000000000e+02,5.984702800000000025e+02
2.470000000000000000e+02,5.988654199999999719e+02
2.480000000000000000e+02,5.992595800000000281e+02
2.490000000000000000e+02,5.996492299999999886e+02
2.500000000000000000e+02,6.000363800000000083e+02
2.510000000000000000e+02,6.004201699999999846e+02
2.520000000000000000e+02,6.008016999999999825e+02
2.530000000000000000e+02,6.011803599999999506e+02
2.540000000000000000e+02,6.015579199999999673e+02
2.550000000000000000e+02,6.019318200000000161e+02
2.560000000000000000e+02,6.023028600000000097e+02
2.570000000000000000e+02,6.026729100000000017e+02
2.580000000000000000e+02,6.030376599999999598e+02
2.590000000000000000e+02,6.034016699999999673e+02
2.600000000000000000e+02,6.037631199999999581e+02
2.610000000000000000e+02,6.041193200000000161e+02
2.620000000000000000e+02,6.044758299999999736e+02
2.630000000000000000e+02,6.048301999999999907e+02
2.640000000000000000e+02,6.051814600000000155e+02
2.650000000000000000e+02,6.055302100000000110e+02
2.660000000000000000e+02,6.058777499999999918e+02
2.670000000000000000e+02,6.062239399999999705e+02
2.680000000000000000e+02,6.065651900000000296e+02
2.690000000000000000e+02,6.069063700000000381e+02
2.700000000000000000e+02,6.072437700000000405e+02
2.710000000000000000e+02,6.075792800000000398e+02
2.720000000000000000e+02,6.079134500000000116e+02
2.730000000000000000e+02,6.082453600000000051e+02
2.740000000000000000e+02,6.085765999999999849e+02
2.750000000000000000e+02,6.089035000000000082e+02
2.760000000000000000e+02,6.092299199999999928e+02
2.770000000000000000e+02,6.095533400000000483e+02
2.780000000000000000e+02,6.098758500000000140e+02
2.790000000000000000e+02,6.101961099999999760e+02
2.800000000000000000e+02,6.105159899999999880e+02
2.810000000000000000e+02,6.108322799999999688e+02
2.820000000000000000e+02,6.111497799999999643e+02
2.830000000000000000e+02,6.114630100000000539e+02
2.840000000000000000e+02,6.117771599999999808e+02
2.850000000000000000e+02,6.120863000000000511e+02
2.860000000000000000e+02,6.123959999999999582e+02
2.870000000000000000e+02,6.127037400000000389e+02
2.880000000000000000e+02,6.130097700000000032e+02
2.890000000000000000e+02,6.133156099999999924e+02
2.900000000000000000e+02,6.136183499999999640e+02
2.910000000000000000e+02,6.139208999999999605e+02
2.920000000000000000e+02,6.142210099999999784e+02
2.930000000000000000e+02,6.145233799999999746e+02
2.940000000000000000e+02,6.148201900000000251e+02
2.950000000000000000e+02,6.151181599999999889e+02
2.960000000000000000e+02,6.154147299999999632e+02
2.970000000000000000e+02,6.157115499999999884e+02
2.980000000000000000e+02,6.160046399999999949e+02
2.990000000000000000e+02,6.162992600000000039e+02
3.000000000000000000e+02,6.165913100000000213e+02
3.010000000000000000e+02,6.168844000000000278e+02
3.020000000000000000e+02,6.171761500000000069e+02
3.030000000000000000e+02,6.174669199999999591e+02
3.040000000000000000e+02,6.177565899999999601e+02
3.050000000000000000e+02,6.180480300000000398e+02
3.060000000000000000e+02,6.183353899999999612e+02
3.070000000000000000e+02,6.186239000000000487e+02
3.080000000000000000e+02,6.189130900000000111e+02
3.090000000000000000e+02,6.192011099999999715e+02
3.100000000000000000e+02,6.194887700000000450e+02
3.110000000000000000e+02,6.197765500000000429e+02
3.120000000000000000e+02,6.200650600000000168e+02
3.130000000000000000e+02,6.203508900000000494e+02
3.140000000000000000e+02,6.206389199999999846e+02
3.150000000000000000e+02,6.209254799999999932e+02
3.160000000000000000e+02,6.212156999999999698e+02
3.170000000000000000e+02,6.215022599999999784e+02
3.180000000000000000e+02,6.217908899999999903e+02
3.190000000000000000e+02,6.220801400000000285e+02
3.200000000000000000e+02,6.223685299999999643e+02
3.210000000000000000e+02,6.226582600000000411e+02
3.220000000000000000e+02,6.229479400000000169e+02
3.230000000000000000e+02,6.232421299999999746e+02
3.240000000000000000e+02,6.235325299999999515e+02
3.250000000000000000e+02,6.238259299999999712e+02
3.260000000000000000e+02,6.241200000000000045e+02
3.270000000000000000e+02,6.244162000000000035e+02
3.280000000000000000e+02,6.247106300000000374e+02
3.290000000000000000e+02,6.250085400000000391e+02
3.300000000000000000e+02,6.253068200000000161e+02
3.310000000000000000e+02,6.256095000000000255e+02
3.320000000000000000e+02,6.259097299999999677e+02
3.330000000000000000e+02,6.262132599999999911e+02
3.340000000000000000e+02,6.265170900000000529e+02
3.350000000000000000e+02,6.268247699999999440e+02
3.360000000000000000e+02,6.271309800000000223e+02
3.370000000000000000e+02,6.274407300000000305e+02
3.380000000000000000e+02,6.277517100000000028e+02
3.390000000000000000e+02,6.280650000000000546e+02
3.400000000000000000e+02,6.283774399999999787e+02
3.410000000000000000e+02,6.286940299999999979e+02
3.420000000000000000e+02,6.290120200000000068e+02
3.430000000000000000e+02,6.293302599999999529e+02
3.440000000000000000e+02,6.296509399999999914e+02
3.450000000000000000e+02,6.299700299999999515e+02
3.460000000000000000e+02,6.302922999999999547e+02
3.470000000000000000e+02,6.306153000000000475e+02
3.480000000000000000e+02,6.309395100000000411e+02
3.490000000000000000e+02,6.312654400000000123e+02
3.500000000000000000e+02,6.315902099999999564e+02
3.510000000000000000e+02,6.319166900000000169e+02
3.520000000000000000e+02,6.322427999999999884e+02
3.530000000000000000e+02,6.325703099999999495e+02
3.540000000000000000e+02,6.328975799999999481e+02
3.550000000000000000e+02,6.332263199999999870e+02
3.560000000000000000e+02,6.335535300000000234e+02
3.570000000000000000e+02,6.338819600000000491e+02
3.580000000000000000e+02,6.342095299999999725e+02
3.590000000000000000e+02,6.345380199999999604e+02
3.600000000000000000e+02,6.348660300000000234e+02
3.610000000000000000e+02,6.351913500000000568e+02
3.620000000000000000e+02,6.355190999999999804e+02
3.630000000000000000e+02,6.358452099999999518e+02
3.640000000000000000e+02,6.361711999999999989e+02
3.650000000000000000e+02,6.364969499999999698e+02
3.660000000000000000e+02,6.368225700000000415e+02
3.670000000000000000e+02,6.371450800000000072e+02
3.680000000000000000e+02,6.374686900000000378e+02
3.690000000000000000e+02,6.377902800000000525e+02
3.700000000000000000e+02,6.381120600000000422e+02
3.710000000000000000e+02,6.384349999999999454e+02
3.720000000000000000e+02,6.387529899999999543e+02
3.730000000000000000e+02,6.390719000000000278e+02
3.740000000000000000e+02,6.393897699999999986e+02
3.750000000000000000e+02,6.397062399999999798e+02
3.760000000000000000e+02,6.400220900000000483e+02
3.770000000000000000e+02,6.403353299999999990e+02
3.780000000000000000e+02,6.406485599999999749e+02
3.790000000000000000e+02,6.409595900000000483e+02
3.800000000000000000e+02,6.412703900000000203e+02
3.810000000000000000e+02,6.415800799999999526e+02
3.820000000000000000e+02,6.418864099999999553e+02
3.830000000000000000e+02,6.421939700000000357e+02
3.840000000000000000e+02,6.424989000000000487e+02
3.850000000000000000e+02,6.428035899999999856e+02
3.860000000000000000e+02,6.431060199999999440e+02
3.870000000000000000e+02,6.434074100000000271e+02
3.880000000000000000e+02,6.437067899999999554e+02
3.890000000000000000e+02,6.440057399999999461e+02
3.900000000000000000e+02,6.443032799999999725e+02
3.910000000000000000e+02,6.445973500000000058e+02
3.920000000000000000e+02,6.448919100000000526e+02
3.930000000000000000e+02,6.451847500000000082e+02
3.940000000000000000e+02,6.454755900000000111e+02
3.950000000000000000e+02,6.457659899999999880e+02
3.960000000000000000e+02,6.460538900000000240e+02
3.970000000000000000e+02,6.463412499999999454e+02
3.980000000000000000e+02,6.466256700000000137e+02
3.990000000000000000e+02,6.469096100000000433e+02
4.000000000000000000e+02,6.471912200000000439e+02
4.010000000000000000e+02,6.474741199999999708e+02
4.020000000000000000e+02,6.477516500000000406e+02
4.030000000000000000e+02,6.480297900000000482e+02
4.040000000000000000e+02,6.483066999999999780e+02
4.050000000000000000e+02,6.485800199999999904e+02
4.060000000000000000e+02,6.488533899999999903e+02
4.070000000000000000e+02,6.491267699999999650e+02
4.080000000000000000e+02,6.493955099999999447e+02
4.090000000000000000e+02,6.496647299999999632e+02
4.100000000000000000e+02,6.499330400000000054e+02
4.110000000000000000e+02,6.501972700000000032e+02
4.120000000000000000e+02,6.504626500000000533e+02
4.130000000000000000e+02,6.507261399999999867e+02
4.140000000000000000e+02,6.509860200000000532e+02
4.150000000000000000e+02,6.512459099999999808e+02
4.160000000000000000e+02,6.515058000000000220e+02
4.170000000000000000e+02,6.517609899999999925e+02
4.180000000000000000e+02,6.520163599999999633e+02
4.190000000000000000e+02,6.522710600000000341e+02
4.200000000000000000e+02,6.525230699999999615e+02
4.210000000000000000e+02,6.527739299999999503e+02
4.220000000000000000e+02,6.530241099999999506e+02
4.230000000000000000e+02,6.532705700000000206e+02
4.240000000000000000e+02,6.535178799999999910e+02
4.250000000000000000e+02,6.537635500000000093e+02
4.260000000000000000e+02,6.540060399999999845e+02
4.270000000000000000e+02,6.542491499999999860e+02
4.280000000000000000e+02,6.544893799999999828e+02
4.290000000000000000e+02,6.547288200000000415e+02
4.300000000000000000e+02,6.549666099999999460e+02
4.310000000000000000e+02,6.552031200000000126e+02
4.320000000000000000e+02,6.554388400000000274e+02
4.330000000000000000e+02,6.556707199999999602e+02
4.340000000000000000e+02,6.559036300000000210e+02
4.350000000000000000e+02,6.561352500000000418e+02
4.360000000000000000e+02,6.563636500000000069e+02
4.370000000000000000e+02,6.565929599999999482e+02
4.380000000000000000e+02,6.568185399999999845e+02
4.390000000000000000e+02,6.570444300000000339e+02
4.400000000000000000e+02,6.572669700000000148e+02
4.410000000000000000e+02,6.574907200000000103e+02
4.420000000000000000e+02,6.577119800000000396e+02
4.430000000000000000e+02,6.579311500000000024e+02
4.440000000000000000e+02,6.581510600000000295e+02
4.450000000000000000e+02,6.583667599999999993e+02
4.460000000000000000e+02,6.585840500000000475e+02
4.470000000000000000e+02,6.587973600000000260e+02
4.480000000000000000e+02,6.590112900000000309e+02
4.490000000000000000e+02,6.592226000000000568e+02
4.500000000000000000e+02,6.594342699999999695e+02
4.510000000000000000e+02,6.596415399999999636e+02
4.520000000000000000e+02,6.598510700000000497e+02
4.530000000000000000e+02,6.600576800000000048e+02
4.540000000000000000e+02,6.602617800000000443e+02
4.550000000000000000e+02,6.604676500000000487e+02
4.560000000000000000e+02,6.606690099999999575e+02
4.570000000000000000e+02,6.608721900000000460e+02
4.580000000000000000e+02,6.610709799999999632e+02
4.590000000000000000e+02,6.612710600000000341e+02
4.600000000000000000e+02,6.614678999999999860e+02
4.610000000000000000e+02,6.616655899999999519e+02
4.620000000000000000e+02,6.618599199999999882e+02
4.630000000000000000e+02,6.620549899999999752e+02
4.640000000000000000e+02,6.622465799999999945e+02
4.650000000000000000e+02,6.624400000000000546e+02
4.660000000000000000e+02,6.626286000000000058e+02
4.670000000000000000e+02,6.628197000000000116e+02
4.680000000000000000e+02,6.630060399999999845e+02
4.690000000000000000e+02,6.631946400000000494e+02
4.700000000000000000e+02,6.633791499999999814e+02
4.710000000000000000e+02,6.635635999999999513e+02
4.720000000000000000e+02,6.637471900000000460e+02
4.730000000000000000e+02,6.639285300000000234e+02
4.740000000000000000e+02,6.641109599999999773e+02
4.750000000000000000e+02,6.642891799999999876e+02
4.760000000000000000e+02,6.644698499999999513e+02
4.770000000000000000e+02,6.646456299999999828e+02
4.780000000000000000e+02,6.648235499999999547e+02
4.790000000000000000e+02,6.649976199999999835e+02
4.800000000000000000e+02,6.651734000000000151e+02
4.810000000000000000e+02,6.653450900000000274e+02
4.820000000000000000e+02,6.655175199999999904e+02
4.830000000000000000e+02,6.656883500000000140e+02
4.840000000000000000e+02,6.658574800000000096e+02
4.850000000000000000e+02,6.660272800000000188e+02
4.860000000000000000e+02,6.661939700000000357e+02
4.870000000000000000e+02,6.663613900000000285e+02
4.880000000000000000e+02,6.665266100000000051e+02
4.890000000000000000e+02,6.666903099999999540e+02
4.900000000000000000e+02,6.668544900000000553e+02
4.910000000000000000e+02,6.670158099999999877e+02
4.920000000000000000e+02,6.671783400000000483e+02
4.930000000000000000e+02,6.673373400000000402e+02
4.940000000000000000e+02,6.674967000000000326e+02
4.950000000000000000e+02,6.676550899999999729e+02
4.960000000000000000e+02,6.678116499999999860e+02
4.970000000000000000e+02,6.679686299999999619e+02
4.980000000000000000e+02,6.681232300000000350e+02
4.990000000000000000e+02,6.682764300000000048e+02
5.000000000000000000e+02,6.684308499999999640e+02
5.010000000000000000e+02,6.685820300000000316e+02
5.020000000000000000e+02,6.687339500000000498e+02
5.030000000000000000e+02,6.688836099999999760e+02
5.040000000000000000e+02,6.690319799999999759e+02
5.050000000000000000e+02,6.691810299999999643e+02
5.060000000000000000e+02,6.693275099999999611e+02
5.070000000000000000e+02,6.694734499999999571e+02
5.080000000000000000e+02,6.696190800000000536e+02
5.090000000000000000e+02,6.697630000000000337e+02
5.100000000000000000e+02,6.699075299999999515e+02
5.110000000000000000e+02,6.700488299999999526e+02
5.120000000000000000e+02,6.701903099999999540e+02
5.130000000000000000e+02,6.703313000000000557e+02
5.140000000000000000e+02,6.704704600000000028e+02
5.150000000000000000e+02,6.706088300000000118e+02
5.160000000000000000e+02,6.707476199999999835e+02
5.170000000000000000e+02,6.708839699999999766e+02
5.180000000000000000e+02,6.710195899999999938e+02
5.190000000000000000e+02,6.711555799999999863e+02
5.200000000000000000e+02,6.712888799999999492e+02
5.210000000000000000e+02,6.714221199999999499e+02
5.220000000000000000e+02,6.715554799999999886e+02
5.230000000000000000e+02,6.716861000000000104e+02
5.240000000000000000e+02,6.718168899999999439e+02
5.250000000000000000e+02,6.719475099999999657e+02
5.260000000000000000e+02,6.720756199999999581e+02
5.270000000000000000e+02,6.722036100000000260e+02
5.280000000000000000e+02,6.723314800000000560e+02
5.290000000000000000e+02,6.724573400000000447e+02
5.300000000000000000e+02,6.725828900000000203e+02
5.310000000000000000e+02,6.727081299999999828e+02
5.320000000000000000e+02,6.728315400000000182e+02
5.330000000000000000e+02,6.729542199999999639e+02
5.340000000000000000e+02,6.730774499999999989e+02
5.350000000000000000e+02,6.731984899999999925e+02
5.360000000000000000e+02,6.733187299999999595e+02
5.370000000000000000e+02,6.734394499999999653e+02
5.380000000000000000e+02,6.735579800000000432e+02
5.390000000000000000e+02,6.736760299999999688e+02
5.400000000000000000e+02,6.737930300000000443e+02
5.410000000000000000e+02,6.739107099999999946e+02
5.420000000000000000e+02,6.740258199999999533e+02
5.430000000000000000e+02,6.741407500000000255e+02
5.440000000000000000e+02,6.742558599999999842e+02
5.450000000000000000e+02,6.743690199999999777e+02
5.460000000000000000e+02,6.744815700000000334e+02
5.470000000000000000e+02,6.745944799999999759e+02
5.480000000000000000e+02,6.747051999999999907e+02
5.490000000000000000e+02,6.748157300000000305e+02
5.500000000000000000e+02,6.749250500000000557e+02
5.510000000000000000e+02,6.750351000000000568e+02
5.520000000000000000e+02,6.751428200000000288e+02
5.530000000000000000e+02,6.752505499999999756e+02
5.540000000000000000e+02,6.753566899999999578e+02
5.550000000000000000e+02,6.754639300000000048e+02
5.560000000000000000e+02,6.755687299999999595e+02
5.570000000000000000e+02,6.756730999999999767e+02
5.580000000000000000e+02,6.757781999999999698e+02
5.590000000000000000e+02,6.758809800000000223e+02
5.600000000000000000e+02,6.759834600000000364e+02
5.610000000000000000e+02,6.760849600000000237e+02
5.620000000000000000e+02,6.761872600000000375e+02
5.630000000000000000e+02,6.762874799999999595e+02
5.640000000000000000e+02,6.763871500000000196e+02
5.650000000000000000e+02,6.764857200000000148e+02
5.660000000000000000e+02,6.765855699999999615e+02
5.670000000000000000e+02,6.766826200000000426e+02
5.680000000000000000e+02,6.767799099999999726e+02
5.690000000000000000e+02,6.768759800000000268e+02
5.700000000000000000e+02,6.769727799999999434e+02
5.710000000000000000e+02,6.770674400000000333e+02
5.720000000000000000e+02,6.771621699999999464e+02
5.730000000000000000e+02,6.772556200000000217e+02
5.740000000000000000e+02,6.773496699999999464e+02
5.750000000000000000e+02,6.774420199999999568e+02
5.760000000000000000e+02,6.775341799999999921e+02
5.770000000000000000e+02,6.776251200000000381e+02
5.780000000000000000e+02,6.777155800000000454e+02
5.790000000000000000e+02,6.778068200000000161e+02
5.800000000000000000e+02,6.778958099999999831e+02
5.810000000000000000e+02,6.779846800000000258e+02
5.820000000000000000e+02,6.780726300000000037e+02
5.830000000000000000e+02,6.781614399999999705e+02
5.840000000000000000e+02,6.782482300000000350e+02
5.850000000000000000e+02,6.783345299999999725e+02
5.860000000000000000e+02,6.784202299999999468e+02
5.870000000000000000e+02,6.785054300000000467e+02
5.880000000000000000e+02,6.785911300000000210e+02
5.890000000000000000e+02,6.786746200000000044e+02
5.900000000000000000e+02,6.787584200000000010e+02
5.910000000000000000e+02,6.788409400000000460e+02
5.920000000000000000e+02,6.789246200000000044e+02
5.930000000000000000e+02,6.790059800000000223e+02
5.940000000000000000e+02,6.790874000000000024e+02
5.950000000000000000e+02,6.791677899999999681e+02
5.960000000000000000e+02,6.792480500000000347e+02
5.970000000000000000e+02,6.793284899999999880e+02
5.980000000000000000e+02,6.794071699999999510e+02
5.990000000000000000e+02,6.794859000000000151e+02