Loop,Time,r0-A,p0-C0,p1-C0,p0-Cpa,p1-Cpa,p0-Cpb,p1-Cpb,r0-E,r0-Hp,p0-K,p1-K,Value,r0-Xi,p0-eps,p1-eps,p0-ka,p1-ka,p0-kb,p1-kb,r0-n,r0-nO2,p0-rho,p1-rho,
-1,0,2430000000000.0,1.0,0.0,1074.1475584989025,1118.3154061172554,0.06879845081400955,0.20221659568958766,181000.0,100728.01230253816,10974.532802515494,100000000.0,0.04998203434698261,0.7338086749851456,0.9400914388059788,0.94,0.3031494940627837,0.06933654807215994,6.310258551209185e-05,0.00032540294634774287,0.996923169465241,0.0,1683.0,1235.0,
