# Time [s], Temperature [C]
1.000000000000000000e+00,2.500000000000000000e+01
2.000000000000000000e+00,2.500000000000000000e+01
3.000000000000000000e+00,2.500000000000000000e+01
4.000000000000000000e+00,2.500000199999999850e+01
5.000000000000000000e+00,2.500000999999999962e+01
6.000000000000000000e+00,2.500005300000000119e+01
7.000000000000000000e+00,2.500023300000000148e+01
8.000000000000000000e+00,2.500082199999999943e+01
9.000000000000000000e+00,2.500244700000000009e+01
1.000000000000000000e+01,2.500629599999999897e+01
1.100000000000000000e+01,2.501436199999999843e+01
1.200000000000000000e+01,2.502960600000000113e+01
1.300000000000000000e+01,2.505603400000000036e+01
1.400000000000000000e+01,2.509863500000000158e+01
1.500000000000000000e+01,2.516324600000000089e+01
1.600000000000000000e+01,2.525632099999999980e+01
1.700000000000000000e+01,2.538469900000000123e+01
1.800000000000000000e+01,2.555534899999999965e+01
1.900000000000000000e+01,2.577515599999999907e+01
2.000000000000000000e+01,2.605074899999999971e+01
2.100000000000000000e+01,2.638835100000000011e+01
2.200000000000000000e+01,2.679365500000000111e+01
2.300000000000000000e+01,2.727176700000000054e+01
2.400000000000000000e+01,2.782715999999999923e+01
2.500000000000000000e+01,2.846363600000000105e+01
2.600000000000000000e+01,2.918428799999999868e+01
2.700000000000000000e+01,2.999154300000000006e+01
2.800000000000000000e+01,3.088714999999999833e+01
2.900000000000000000e+01,3.187222099999999969e+01
3.000000000000000000e+01,3.294724699999999729e+01
3.100000000000000000e+01,3.411222800000000177e+01
3.200000000000000000e+01,3.536664600000000291e+01
3.300000000000000000e+01,3.670962899999999962e+01
3.400000000000000000e+01,3.813990799999999837e+01
3.500000000000000000e+01,3.965601699999999852e+01
3.600000000000000000e+01,4.125624799999999937e+01
3.700000000000000000e+01,4.293870900000000290e+01
3.800000000000000000e+01,4.470136999999999716e+01
3.900000000000000000e+01,4.654197700000000282e+01
4.000000000000000000e+01,4.845828999999999809e+01
4.100000000000000000e+01,5.044789899999999960e+01
4.200000000000000000e+01,5.250830799999999954e+01
4.300000000000000000e+01,5.463697400000000215e+01
4.400000000000000000e+01,5.683139800000000008e+01
4.500000000000000000e+01,5.908900500000000022e+01
4.600000000000000000e+01,6.140723799999999954e+01
4.700000000000000000e+01,6.378367999999999682e+01
4.800000000000000000e+01,6.621588900000000422e+01
4.900000000000000000e+01,6.870149200000000178e+01
5.000000000000000000e+01,7.123799900000000207e+01
5.100000000000000000e+01,7.382309700000000419e+01
5.200000000000000000e+01,7.645449800000000096e+01
5.300000000000000000e+01,7.912984500000000310e+01
5.400000000000000000e+01,8.184681700000000149e+01
5.500000000000000000e+01,8.460323300000000302e+01
5.600000000000000000e+01,8.739692700000000514e+01
5.700000000000000000e+01,9.022585300000000075e+01
5.800000000000000000e+01,9.308808899999999653e+01
5.900000000000000000e+01,9.598161299999999585e+01
6.000000000000000000e+01,9.890459400000000301e+01
6.100000000000000000e+01,1.018553299999999950e+02
6.200000000000000000e+01,1.048320899999999938e+02
6.300000000000000000e+01,1.078330700000000064e+02
6.400000000000000000e+01,1.108567000000000036e+02
6.500000000000000000e+01,1.139012900000000030e+02
6.600000000000000000e+01,1.169651599999999974e+02
6.700000000000000000e+01,1.200468599999999952e+02
6.800000000000000000e+01,1.231448699999999974e+02
6.900000000000000000e+01,1.262577100000000030e+02
7.000000000000000000e+01,1.293841400000000021e+02
7.100000000000000000e+01,1.325228700000000117e+02
7.200000000000000000e+01,1.356727799999999888e+02
7.300000000000000000e+01,1.388326600000000042e+02
7.400000000000000000e+01,1.420013999999999896e+02
7.500000000000000000e+01,1.451779600000000130e+02
7.600000000000000000e+01,1.483612400000000093e+02
7.700000000000000000e+01,1.515502199999999959e+02
7.800000000000000000e+01,1.547438400000000058e+02
7.900000000000000000e+01,1.579410900000000026e+02
8.000000000000000000e+01,1.611409800000000132e+02
8.100000000000000000e+01,1.643425799999999981e+02
8.200000000000000000e+01,1.675450099999999907e+02
8.300000000000000000e+01,1.707474400000000117e+02
8.400000000000000000e+01,1.739490999999999872e+02
8.500000000000000000e+01,1.771492499999999950e+02
8.600000000000000000e+01,1.803472099999999898e+02
8.700000000000000000e+01,1.835423700000000053e+02
8.800000000000000000e+01,1.867341199999999901e+02
8.900000000000000000e+01,1.899217500000000030e+02
9.000000000000000000e+01,1.931047399999999925e+02
9.100000000000000000e+01,1.962824400000000082e+02
9.200000000000000000e+01,1.994541800000000080e+02
9.300000000000000000e+01,2.026193700000000035e+02
9.400000000000000000e+01,2.057774200000000064e+02
9.500000000000000000e+01,2.089277199999999937e+02
9.600000000000000000e+01,2.120696900000000085e+02
9.700000000000000000e+01,2.152027699999999868e+02
9.800000000000000000e+01,2.183264499999999941e+02
9.900000000000000000e+01,2.214403499999999951e+02
1.000000000000000000e+02,2.245441099999999892e+02
1.010000000000000000e+02,2.276372800000000041e+02
1.020000000000000000e+02,2.307194499999999948e+02
1.030000000000000000e+02,2.337903399999999863e+02
1.040000000000000000e+02,2.368495000000000061e+02
1.050000000000000000e+02,2.398964799999999968e+02
1.060000000000000000e+02,2.429308900000000051e+02
1.070000000000000000e+02,2.459522699999999986e+02
1.080000000000000000e+02,2.489602199999999925e+02
1.090000000000000000e+02,2.519542099999999891e+02
1.100000000000000000e+02,2.549338799999999878e+02
1.110000000000000000e+02,2.578987700000000132e+02
1.120000000000000000e+02,2.608485699999999952e+02
1.130000000000000000e+02,2.637828700000000026e+02
1.140000000000000000e+02,2.667014199999999846e+02
1.150000000000000000e+02,2.696039099999999848e+02
1.160000000000000000e+02,2.724900499999999965e+02
1.170000000000000000e+02,2.753596200000000067e+02
1.180000000000000000e+02,2.782122800000000211e+02
1.190000000000000000e+02,2.810477300000000014e+02
1.200000000000000000e+02,2.838656300000000101e+02
1.210000000000000000e+02,2.866655600000000277e+02
1.220000000000000000e+02,2.894471100000000092e+02
1.230000000000000000e+02,2.922098399999999856e+02
1.240000000000000000e+02,2.949532199999999875e+02
1.250000000000000000e+02,2.976768200000000206e+02
1.260000000000000000e+02,3.003801300000000083e+02
1.270000000000000000e+02,3.030625600000000190e+02
1.280000000000000000e+02,3.057236599999999953e+02
1.290000000000000000e+02,3.083628199999999993e+02
1.300000000000000000e+02,3.109794899999999984e+02
1.310000000000000000e+02,3.135730300000000170e+02
1.320000000000000000e+02,3.161426099999999906e+02
1.330000000000000000e+02,3.186874700000000189e+02
1.340000000000000000e+02,3.212068199999999933e+02
1.350000000000000000e+02,3.236996800000000007e+02
1.360000000000000000e+02,3.261651299999999765e+02
1.370000000000000000e+02,3.286021400000000199e+02
1.380000000000000000e+02,3.310096100000000092e+02
1.390000000000000000e+02,3.333864699999999743e+02
1.400000000000000000e+02,3.357317800000000148e+02
1.410000000000000000e+02,3.380443999999999960e+02
1.420000000000000000e+02,3.403231799999999794e+02
1.430000000000000000e+02,3.425669899999999757e+02
1.440000000000000000e+02,3.447748100000000022e+02
1.450000000000000000e+02,3.469454000000000065e+02
1.460000000000000000e+02,3.490776399999999740e+02
1.470000000000000000e+02,3.511702900000000227e+02
1.480000000000000000e+02,3.532222600000000057e+02
1.490000000000000000e+02,3.552324199999999905e+02
1.500000000000000000e+02,3.571997999999999820e+02
1.510000000000000000e+02,3.591234699999999975e+02
1.520000000000000000e+02,3.610026199999999790e+02
1.530000000000000000e+02,3.628366399999999885e+02
1.540000000000000000e+02,3.646250600000000190e+02
1.550000000000000000e+02,3.663675799999999754e+02
1.560000000000000000e+02,3.680640900000000215e+02
1.570000000000000000e+02,3.697145399999999995e+02
1.580000000000000000e+02,3.713191800000000171e+02
1.590000000000000000e+02,3.728784800000000246e+02
1.600000000000000000e+02,3.743931299999999851e+02
1.610000000000000000e+02,3.758639800000000264e+02
1.620000000000000000e+02,3.772921099999999797e+02
1.630000000000000000e+02,3.786789200000000051e+02
1.640000000000000000e+02,3.800260299999999916e+02
1.650000000000000000e+02,3.813353000000000179e+02
1.660000000000000000e+02,3.826086700000000178e+02
1.670000000000000000e+02,3.838483299999999758e+02
1.680000000000000000e+02,3.850566099999999778e+02
1.690000000000000000e+02,3.862360499999999774e+02
1.700000000000000000e+02,3.873890999999999849e+02
1.710000000000000000e+02,3.885183700000000044e+02
1.720000000000000000e+02,3.896266499999999837e+02
1.730000000000000000e+02,3.907166399999999840e+02
1.740000000000000000e+02,3.917911100000000033e+02
1.750000000000000000e+02,3.928528099999999768e+02
1.760000000000000000e+02,3.939048199999999724e+02
1.770000000000000000e+02,3.949498600000000010e+02
1.780000000000000000e+02,3.959906599999999912e+02
1.790000000000000000e+02,3.970301799999999730e+02
1.800000000000000000e+02,3.980709800000000200e+02
1.810000000000000000e+02,3.991156300000000101e+02
1.820000000000000000e+02,4.001668099999999981e+02
1.830000000000000000e+02,4.012271700000000010e+02
1.840000000000000000e+02,4.022992899999999850e+02
1.850000000000000000e+02,4.033856200000000172e+02
1.860000000000000000e+02,4.044886500000000069e+02
1.870000000000000000e+02,4.056112400000000093e+02
1.880000000000000000e+02,4.067558000000000220e+02
1.890000000000000000e+02,4.079250200000000177e+02
1.900000000000000000e+02,4.091214600000000132e+02
1.910000000000000000e+02,4.103479300000000194e+02
1.920000000000000000e+02,4.116069299999999771e+02
1.930000000000000000e+02,4.129014900000000239e+02
1.940000000000000000e+02,4.142351100000000201e+02
1.950000000000000000e+02,4.156106899999999769e+02
1.960000000000000000e+02,4.170318899999999758e+02
1.970000000000000000e+02,4.185021399999999971e+02
1.980000000000000000e+02,4.200255700000000161e+02
1.990000000000000000e+02,4.216066000000000145e+02
2.000000000000000000e+02,4.232499399999999810e+02
2.010000000000000000e+02,4.249602399999999989e+02
2.020000000000000000e+02,4.267427400000000262e+02
2.030000000000000000e+02,4.286037600000000225e+02
2.040000000000000000e+02,4.305496499999999855e+02
2.050000000000000000e+02,4.325870100000000207e+02
2.060000000000000000e+02,4.347231400000000008e+02
2.070000000000000000e+02,4.369661600000000021e+02
2.080000000000000000e+02,4.393231499999999983e+02
2.090000000000000000e+02,4.418035899999999856e+02
2.100000000000000000e+02,4.444152199999999766e+02
2.110000000000000000e+02,4.471642200000000003e+02
2.120000000000000000e+02,4.500583500000000186e+02
2.130000000000000000e+02,4.531015600000000063e+02
2.140000000000000000e+02,4.562932999999999879e+02
2.150000000000000000e+02,4.596298499999999763e+02
2.160000000000000000e+02,4.630993000000000279e+02
2.170000000000000000e+02,4.666807600000000207e+02
2.180000000000000000e+02,4.703445399999999950e+02
2.190000000000000000e+02,4.740504500000000121e+02
2.200000000000000000e+02,4.777523800000000165e+02
2.210000000000000000e+02,4.814060099999999807e+02
2.220000000000000000e+02,4.849757399999999734e+02
2.230000000000000000e+02,4.884426900000000273e+02
2.240000000000000000e+02,4.918059099999999830e+02
2.250000000000000000e+02,4.950751599999999826e+02
2.260000000000000000e+02,4.982640700000000038e+02
2.270000000000000000e+02,5.013834800000000200e+02
2.280000000000000000e+02,5.044408000000000243e+02
2.290000000000000000e+02,5.074420499999999947e+02
2.300000000000000000e+02,5.103913299999999822e+02
2.310000000000000000e+02,5.132925999999999931e+02
2.320000000000000000e+02,5.161486800000000130e+02
2.330000000000000000e+02,5.189625200000000405e+02
2.340000000000000000e+02,5.217363299999999526e+02
2.350000000000000000e+02,5.244721100000000433e+02
2.360000000000000000e+02,5.271716900000000123e+02
2.370000000000000000e+02,5.298366700000000264e+02
2.380000000000000000e+02,5.324683199999999488e+02
2.390000000000000000e+02,5.350681200000000217e+02
2.400000000000000000e+02,5.376372099999999818e+02
2.410000000000000000e+02,5.401764500000000453e+02
2.420000000000000000e+02,5.426871300000000247e+02
2.430000000000000000e+02,5.451698000000000093e+02
2.440000000000000000e+02,5.476257299999999759e+02
2.450000000000000000e+02,5.500552999999999884e+02
2.460000000000000000e+02,5.524593499999999722e+02
2.470000000000000000e+02,5.548385600000000295e+02
2.480000000000000000e+02,5.571935399999999845e+02
2.490000000000000000e+02,5.595246600000000399e+02
2.500000000000000000e+02,5.618331299999999828e+02
2.510000000000000000e+02,5.641189600000000155e+02
2.520000000000000000e+02,5.663827499999999873e+02
2.530000000000000000e+02,5.686248199999999997e+02
2.540000000000000000e+02,5.708457600000000411e+02
2.550000000000000000e+02,5.730459600000000364e+02
2.560000000000000000e+02,5.752258900000000494e+02
2.570000000000000000e+02,5.773859300000000303e+02
2.580000000000000000e+02,5.795261799999999539e+02
2.590000000000000000e+02,5.816473399999999856e+02
2.600000000000000000e+02,5.837494500000000244e+02
2.610000000000000000e+02,5.858328900000000203e+02
2.620000000000000000e+02,5.878979500000000371e+02
2.630000000000000000e+02,5.899451299999999492e+02
2.640000000000000000e+02,5.919744899999999461e+02
2.650000000000000000e+02,5.939863299999999526e+02
2.660000000000000000e+02,5.959809599999999818e+02
2.670000000000000000e+02,5.979585600000000341e+02
2.680000000000000000e+02,5.999192500000000337e+02
2.690000000000000000e+02,6.018634600000000319e+02
2.700000000000000000e+02,6.037913800000000037e+02
2.710000000000000000e+02,6.057032500000000255e+02
2.720000000000000000e+02,6.075992400000000089e+02
2.730000000000000000e+02,6.094793100000000550e+02
2.740000000000000000e+02,6.113439300000000003e+02
2.750000000000000000e+02,6.131932399999999461e+02
2.760000000000000000e+02,6.150272200000000566e+02
2.770000000000000000e+02,6.168463100000000168e+02
2.780000000000000000e+02,6.186503900000000158e+02
2.790000000000000000e+02,6.204400000000000546e+02
2.800000000000000000e+02,6.222149699999999939e+02
2.810000000000000000e+02,6.239756499999999733e+02
2.820000000000000000e+02,6.257219800000000305e+02
2.830000000000000000e+02,6.274543499999999767e+02
2.840000000000000000e+02,6.291729100000000017e+02
2.850000000000000000e+02,6.308774399999999787e+02
2.860000000000000000e+02,6.325683000000000220e+02
2.870000000000000000e+02,6.342456700000000183e+02
2.880000000000000000e+02,6.359096700000000055e+02
2.890000000000000000e+02,6.375604200000000219e+02
2.900000000000000000e+02,6.391980600000000550e+02
2.910000000000000000e+02,6.408225700000000415e+02
2.920000000000000000e+02,6.424342000000000326e+02
2.930000000000000000e+02,6.440329600000000028e+02
2.940000000000000000e+02,6.456190800000000536e+02
2.950000000000000000e+02,6.471927500000000464e+02
2.960000000000000000e+02,6.487538500000000568e+02
2.970000000000000000e+02,6.503026700000000346e+02
2.980000000000000000e+02,6.518392300000000432e+02
2.990000000000000000e+02,6.533637099999999691e+02
3.000000000000000000e+02,6.548760999999999513e+02
3.010000000000000000e+02,6.563765899999999647e+02
3.020000000000000000e+02,6.578653000000000475e+02
3.030000000000000000e+02,6.593420399999999972e+02
3.040000000000000000e+02,6.608073699999999917e+02
3.050000000000000000e+02,6.622612299999999550e+02
3.060000000000000000e+02,6.637034300000000258e+02
3.070000000000000000e+02,6.651344599999999900e+02
3.080000000000000000e+02,6.665541399999999612e+02
3.090000000000000000e+02,6.679627100000000155e+02
3.100000000000000000e+02,6.693601700000000392e+02
3.110000000000000000e+02,6.707467000000000326e+02
3.120000000000000000e+02,6.721223099999999704e+02
3.130000000000000000e+02,6.734870600000000422e+02
3.140000000000000000e+02,6.748411300000000210e+02
3.150000000000000000e+02,6.761845700000000079e+02
3.160000000000000000e+02,6.775175199999999904e+02
3.170000000000000000e+02,6.788398399999999810e+02
3.180000000000000000e+02,6.801518600000000561e+02
3.190000000000000000e+02,6.814535499999999502e+02
3.200000000000000000e+02,6.827450000000000045e+02
3.210000000000000000e+02,6.840263099999999667e+02
3.220000000000000000e+02,6.852975500000000011e+02
3.230000000000000000e+02,6.865588999999999942e+02
3.240000000000000000e+02,6.878102999999999838e+02
3.250000000000000000e+02,6.890517599999999447e+02
3.260000000000000000e+02,6.902835099999999784e+02
3.270000000000000000e+02,6.915056200000000217e+02
3.280000000000000000e+02,6.927180799999999863e+02
3.290000000000000000e+02,6.939210199999999986e+02
3.300000000000000000e+02,6.951145000000000209e+02
3.310000000000000000e+02,6.962986499999999523e+02
3.320000000000000000e+02,6.974734499999999571e+02
3.330000000000000000e+02,6.986389799999999468e+02
3.340000000000000000e+02,6.997952900000000227e+02
3.350000000000000000e+02,7.009424999999999955e+02
3.360000000000000000e+02,7.020808700000000044e+02
3.370000000000000000e+02,7.032102099999999609e+02
3.380000000000000000e+02,7.043306300000000419e+02
3.390000000000000000e+02,7.054421399999999949e+02
3.400000000000000000e+02,7.065448599999999715e+02
3.410000000000000000e+02,7.076390400000000227e+02
3.420000000000000000e+02,7.087245500000000220e+02
3.430000000000000000e+02,7.098014500000000453e+02
3.440000000000000000e+02,7.108698699999999917e+02
3.450000000000000000e+02,7.119298700000000508e+02
3.460000000000000000e+02,7.129815099999999575e+02
3.470000000000000000e+02,7.140249000000000024e+02
3.480000000000000000e+02,7.150600600000000213e+02
3.490000000000000000e+02,7.160869099999999889e+02
3.500000000000000000e+02,7.171058299999999690e+02
3.510000000000000000e+02,7.181165799999999990e+02
3.520000000000000000e+02,7.191193799999999783e+02
3.530000000000000000e+02,7.201142599999999447e+02
3.540000000000000000e+02,7.211013199999999870e+02
3.550000000000000000e+02,7.220804399999999532e+02
3.560000000000000000e+02,7.230519399999999450e+02
3.570000000000000000e+02,7.240157500000000255e+02
3.580000000000000000e+02,7.249719199999999546e+02
3.590000000000000000e+02,7.259205299999999852e+02
3.600000000000000000e+02,7.268615700000000288e+02
3.610000000000000000e+02,7.277952299999999468e+02
3.620000000000000000e+02,7.287214999999999918e+02
3.630000000000000000e+02,7.296404400000000123e+02
3.640000000000000000e+02,7.305521199999999453e+02
3.650000000000000000e+02,7.314565400000000182e+02
3.660000000000000000e+02,7.323537000000000035e+02
3.670000000000000000e+02,7.332437700000000405e+02
3.680000000000000000e+02,7.341268900000000031e+02
3.690000000000000000e+02,7.350029299999999921e+02
3.700000000000000000e+02,7.358720100000000457e+02
3.710000000000000000e+02,7.367341900000000123e+02
3.720000000000000000e+02,7.375895400000000564e+02
3.730000000000000000e+02,7.384381100000000515e+02
3.740000000000000000e+02,7.392799099999999726e+02
3.750000000000000000e+02,7.401151099999999587e+02
3.760000000000000000e+02,7.409435999999999467e+02
3.770000000000000000e+02,7.417654999999999745e+02
3.780000000000000000e+02,7.425809299999999666e+02
3.790000000000000000e+02,7.433898299999999608e+02
3.800000000000000000e+02,7.441923199999999952e+02
3.810000000000000000e+02,7.449883999999999560e+02
3.820000000000000000e+02,7.457781400000000076e+02
3.830000000000000000e+02,7.465616499999999860e+02
3.840000000000000000e+02,7.473388700000000426e+02
3.850000000000000000e+02,7.481099199999999882e+02
3.860000000000000000e+02,7.488748799999999619e+02
3.870000000000000000e+02,7.496336700000000519e+02
3.880000000000000000e+02,7.503864099999999553e+02
3.890000000000000000e+02,7.511331800000000385e+02
3.900000000000000000e+02,7.518739000000000487e+02
3.910000000000000000e+02,7.526088300000000118e+02
3.920000000000000000e+02,7.533378300000000536e+02
3.930000000000000000e+02,7.540610400000000482e+02
3.940000000000000000e+02,7.547785000000000082e+02
3.950000000000000000e+02,7.554901700000000346e+02
3.960000000000000000e+02,7.561962300000000141e+02
3.970000000000000000e+02,7.568966699999999719e+02
3.980000000000000000e+02,7.575914299999999457e+02
3.990000000000000000e+02,7.582807000000000244e+02
4.000000000000000000e+02,7.589644200000000183e+02
4.010000000000000000e+02,7.596426999999999907e+02
4.020000000000000000e+02,7.603155500000000302e+02
4.030000000000000000e+02,7.609830299999999852e+02
4.040000000000000000e+02,7.616452000000000453e+02
4.050000000000000000e+02,7.623020000000000209e+02
4.060000000000000000e+02,7.629535499999999502e+02
4.070000000000000000e+02,7.635999100000000226e+02
4.080000000000000000e+02,7.642411499999999478e+02
4.090000000000000000e+02,7.648772599999999784e+02
4.100000000000000000e+02,7.655081800000000385e+02
4.110000000000000000e+02,7.661340900000000147e+02
4.120000000000000000e+02,7.667549999999999955e+02
4.130000000000000000e+02,7.673709099999999808e+02
4.140000000000000000e+02,7.679819300000000339e+02
4.150000000000000000e+02,7.685880100000000539e+02
4.160000000000000000e+02,7.691892699999999650e+02
4.170000000000000000e+02,7.697857099999999946e+02
4.180000000000000000e+02,7.703773200000000543e+02
4.190000000000000000e+02,7.709641699999999673e+02
4.200000000000000000e+02,7.715463899999999740e+02
4.210000000000000000e+02,7.721239000000000487e+02
4.220000000000000000e+02,7.726967200000000275e+02
4.230000000000000000e+02,7.732650099999999611e+02
4.240000000000000000e+02,7.738286699999999882e+02
4.250000000000000000e+02,7.743878799999999956e+02
4.260000000000000000e+02,7.749425700000000461e+02
4.270000000000000000e+02,7.754927999999999884e+02
4.280000000000000000e+02,7.760386399999999867e+02
4.290000000000000000e+02,7.765800799999999526e+02
4.300000000000000000e+02,7.771171299999999746e+02
4.310000000000000000e+02,7.776499000000000024e+02
4.320000000000000000e+02,7.781784099999999853e+02
4.330000000000000000e+02,7.787026399999999740e+02
4.340000000000000000e+02,7.792226600000000190e+02
4.350000000000000000e+02,7.797384600000000319e+02
4.360000000000000000e+02,7.802501200000000381e+02
4.370000000000000000e+02,7.807576900000000251e+02
4.380000000000000000e+02,7.812611699999999928e+02
4.390000000000000000e+02,7.817606200000000172e+02
4.400000000000000000e+02,7.822559800000000223e+02
4.410000000000000000e+02,7.827473800000000210e+02
4.420000000000000000e+02,7.832347999999999502e+02
4.430000000000000000e+02,7.837183199999999488e+02
4.440000000000000000e+02,7.841979999999999791e+02
4.450000000000000000e+02,7.846737699999999904e+02
4.460000000000000000e+02,7.851456899999999450e+02
4.470000000000000000e+02,7.856138300000000072e+02
4.480000000000000000e+02,7.860781899999999496e+02
4.490000000000000000e+02,7.865387600000000248e+02
4.500000000000000000e+02,7.869956700000000183e+02
4.510000000000000000e+02,7.874489099999999553e+02
4.520000000000000000e+02,7.878984400000000505e+02
4.530000000000000000e+02,7.883443600000000515e+02
4.540000000000000000e+02,7.887866800000000467e+02
4.550000000000000000e+02,7.892254000000000360e+02
4.560000000000000000e+02,7.896606399999999439e+02
4.570000000000000000e+02,7.900922900000000482e+02
4.580000000000000000e+02,7.905205099999999447e+02
4.590000000000000000e+02,7.909452499999999873e+02
4.600000000000000000e+02,7.913665799999999990e+02
4.610000000000000000e+02,7.917845499999999674e+02
4.620000000000000000e+02,7.921990399999999681e+02
4.630000000000000000e+02,7.926102300000000014e+02
4.640000000000000000e+02,7.930181300000000419e+02
4.650000000000000000e+02,7.934226700000000392e+02
4.660000000000000000e+02,7.938239700000000312e+02
4.670000000000000000e+02,7.942220499999999674e+02
4.680000000000000000e+02,7.946168800000000374e+02
4.690000000000000000e+02,7.950085400000000391e+02
4.700000000000000000e+02,7.953970299999999725e+02
4.710000000000000000e+02,7.957823499999999513e+02
4.720000000000000000e+02,7.961645499999999629e+02
4.730000000000000000e+02,7.965436999999999443e+02
4.740000000000000000e+02,7.969197400000000471e+02
4.750000000000000000e+02,7.972927899999999681e+02
4.760000000000000000e+02,7.976627799999999979e+02
4.770000000000000000e+02,7.980297900000000482e+02
4.780000000000000000e+02,7.983938000000000557e+02
4.790000000000000000e+02,7.987548799999999574e+02
4.800000000000000000e+02,7.991129799999999932e+02
4.810000000000000000e+02,7.994682000000000244e+02
4.820000000000000000e+02,7.998205600000000004e+02
4.830000000000000000e+02,8.001701000000000477e+02
4.840000000000000000e+02,8.005167800000000398e+02
4.850000000000000000e+02,8.008607200000000148e+02
4.860000000000000000e+02,8.012017799999999852e+02
4.870000000000000000e+02,8.015401000000000522e+02
4.880000000000000000e+02,8.018756100000000515e+02
4.890000000000000000e+02,8.022084999999999582e+02
4.900000000000000000e+02,8.025386399999999867e+02
4.910000000000000000e+02,8.028661499999999478e+02
4.920000000000000000e+02,8.031909799999999677e+02
4.930000000000000000e+02,8.035131199999999581e+02
4.940000000000000000e+02,8.038327000000000453e+02
4.950000000000000000e+02,8.041497200000000021e+02
4.960000000000000000e+02,8.044641100000000051e+02
4.970000000000000000e+02,8.047759999999999536e+02
4.980000000000000000e+02,8.050852700000000368e+02
4.990000000000000000e+02,8.053920900000000529e+02
5.000000000000000000e+02,8.056964100000000144e+02
5.010000000000000000e+02,8.059982899999999972e+02
5.020000000000000000e+02,8.062976700000000392e+02
5.030000000000000000e+02,8.065946000000000140e+02
5.040000000000000000e+02,8.068892200000000230e+02
5.050000000000000000e+02,8.071814000000000533e+02
5.060000000000000000e+02,8.074711300000000165e+02
5.070000000000000000e+02,8.077586099999999760e+02
5.080000000000000000e+02,8.080436999999999443e+02
5.090000000000000000e+02,8.083264799999999468e+02
5.100000000000000000e+02,8.086069300000000339e+02
5.110000000000000000e+02,8.088851300000000037e+02
5.120000000000000000e+02,8.091610699999999952e+02
5.130000000000000000e+02,8.094347500000000082e+02
5.140000000000000000e+02,8.097062399999999798e+02
5.150000000000000000e+02,8.099755199999999604e+02
5.160000000000000000e+02,8.102426100000000133e+02
5.170000000000000000e+02,8.105075100000000248e+02
5.180000000000000000e+02,8.107702600000000075e+02
5.190000000000000000e+02,8.110308199999999488e+02
5.200000000000000000e+02,8.112893699999999626e+02
5.210000000000000000e+02,8.115457199999999602e+02
5.220000000000000000e+02,8.118000500000000557e+02
5.230000000000000000e+02,8.120522499999999582e+02
5.240000000000000000e+02,8.123024299999999585e+02
5.250000000000000000e+02,8.125505399999999554e+02
5.260000000000000000e+02,8.127966900000000123e+02
5.270000000000000000e+02,8.130408300000000281e+02
5.280000000000000000e+02,8.132829600000000028e+02
5.290000000000000000e+02,8.135231300000000374e+02
5.300000000000000000e+02,8.137612900000000309e+02
5.310000000000000000e+02,8.139976199999999835e+02
5.320000000000000000e+02,8.142319300000000339e+02
5.330000000000000000e+02,8.144643600000000561e+02
5.340000000000000000e+02,8.146948899999999867e+02
5.350000000000000000e+02,8.149235200000000532e+02
5.360000000000000000e+02,8.151503300000000536e+02
5.370000000000000000e+02,8.153753100000000131e+02
5.380000000000000000e+02,8.155983899999999949e+02
5.390000000000000000e+02,8.158197000000000116e+02
5.400000000000000000e+02,8.160391799999999876e+02
5.410000000000000000e+02,8.162568999999999733e+02
5.420000000000000000e+02,8.164728400000000192e+02
5.430000000000000000e+02,8.166870099999999866e+02
5.440000000000000000e+02,8.168994099999999889e+02
5.450000000000000000e+02,8.171101099999999633e+02
5.460000000000000000e+02,8.173190899999999601e+02
5.470000000000000000e+02,8.175263700000000426e+02
5.480000000000000000e+02,8.177319300000000339e+02
5.490000000000000000e+02,8.179358499999999594e+02
5.500000000000000000e+02,8.181380599999999959e+02
5.510000000000000000e+02,8.183386799999999539e+02
5.520000000000000000e+02,8.185376599999999598e+02
5.530000000000000000e+02,8.187349900000000389e+02
5.540000000000000000e+02,8.189306599999999889e+02
5.550000000000000000e+02,8.191248199999999997e+02
5.560000000000000000e+02,8.193173199999999952e+02
5.570000000000000000e+02,8.195082999999999629e+02
5.580000000000000000e+02,8.196977500000000418e+02
5.590000000000000000e+02,8.198856200000000172e+02
5.600000000000000000e+02,8.200719000000000278e+02
5.610000000000000000e+02,8.202567099999999982e+02
5.620000000000000000e+02,8.204400000000000546e+02
5.630000000000000000e+02,8.206218300000000454e+02
5.640000000000000000e+02,8.208021199999999453e+02
5.650000000000000000e+02,8.209810199999999440e+02
5.660000000000000000e+02,8.211583900000000540e+02
5.670000000000000000e+02,8.213343499999999722e+02
5.680000000000000000e+02,8.215088500000000522e+02
5.690000000000000000e+02,8.216818799999999783e+02
5.700000000000000000e+02,8.218535799999999654e+02
5.710000000000000000e+02,8.220238000000000511e+02
5.720000000000000000e+02,8.221926899999999705e+02
5.730000000000000000e+02,8.223601700000000392e+02
5.740000000000000000e+02,8.225263099999999667e+02
5.750000000000000000e+02,8.226911000000000058e+02
5.760000000000000000e+02,8.228544900000000553e+02
5.770000000000000000e+02,8.230166000000000395e+02
5.780000000000000000e+02,8.231773100000000341e+02
5.790000000000000000e+02,8.233367899999999509e+02
5.800000000000000000e+02,8.234949299999999539e+02
5.810000000000000000e+02,8.236517900000000054e+02
5.820000000000000000e+02,8.238073100000000295e+02
5.830000000000000000e+02,8.239616099999999506e+02
5.840000000000000000e+02,8.241146899999999960e+02
5.850000000000000000e+02,8.242664800000000014e+02
5.860000000000000000e+02,8.244169900000000553e+02
5.870000000000000000e+02,8.245662800000000061e+02
5.880000000000000000e+02,8.247144200000000183e+02
5.890000000000000000e+02,8.248612699999999904e+02
5.900000000000000000e+02,8.250069600000000491e+02
5.910000000000000000e+02,8.251514300000000048e+02
5.920000000000000000e+02,8.252947400000000471e+02
5.930000000000000000e+02,8.254368899999999485e+02
5.940000000000000000e+02,8.255778199999999742e+02
5.950000000000000000e+02,8.257176500000000487e+02
5.960000000000000000e+02,8.258563199999999824e+02
5.970000000000000000e+02,8.259938399999999774e+02
5.980000000000000000e+02,8.261302500000000464e+02
5.990000000000000000e+02,8.262655600000000504e+02