# Time [s], Temperature [C]
1.000000000000000000e+00,2.500000000000000000e+01
2.000000000000000000e+00,2.500000000000000000e+01
3.000000000000000000e+00,2.500000000000000000e+01
4.000000000000000000e+00,2.500000000000000000e+01
5.000000000000000000e+00,2.500000000000000000e+01
6.000000000000000000e+00,2.500000000000000000e+01
7.000000000000000000e+00,2.500000400000000056e+01
8.000000000000000000e+00,2.500001100000000065e+01
9.000000000000000000e+00,2.500003399999999942e+01
1.000000000000000000e+01,2.500009199999999865e+01
1.100000000000000000e+01,2.500021399999999971e+01
1.200000000000000000e+01,2.500045400000000129e+01
1.300000000000000000e+01,2.500088699999999875e+01
1.400000000000000000e+01,2.500160800000000094e+01
1.500000000000000000e+01,2.500273899999999827e+01
1.600000000000000000e+01,2.500441700000000012e+01
1.700000000000000000e+01,2.500679799999999986e+01
1.800000000000000000e+01,2.501004599999999911e+01
1.900000000000000000e+01,2.501433199999999957e+01
2.000000000000000000e+01,2.501982900000000143e+01
2.100000000000000000e+01,2.502670499999999976e+01
2.200000000000000000e+01,2.503512200000000121e+01
2.300000000000000000e+01,2.504523700000000019e+01
2.400000000000000000e+01,2.505719399999999908e+01
2.500000000000000000e+01,2.507112300000000005e+01
2.600000000000000000e+01,2.508714499999999958e+01
2.700000000000000000e+01,2.510536799999999857e+01
2.800000000000000000e+01,2.512588699999999875e+01
2.900000000000000000e+01,2.514878099999999961e+01
3.000000000000000000e+01,2.517412200000000055e+01
3.100000000000000000e+01,2.520196699999999979e+01
3.200000000000000000e+01,2.523236100000000093e+01
3.300000000000000000e+01,2.526534300000000144e+01
3.400000000000000000e+01,2.530094000000000065e+01
3.500000000000000000e+01,2.533916899999999828e+01
3.600000000000000000e+01,2.538004099999999852e+01
3.700000000000000000e+01,2.542356099999999941e+01
3.800000000000000000e+01,2.546972500000000039e+01
3.900000000000000000e+01,2.551851999999999876e+01
4.000000000000000000e+01,2.556993500000000097e+01
4.100000000000000000e+01,2.562395100000000170e+01
4.200000000000000000e+01,2.568054400000000115e+01
4.300000000000000000e+01,2.573968899999999849e+01
4.400000000000000000e+01,2.580135299999999887e+01
4.500000000000000000e+01,2.586550700000000091e+01
4.600000000000000000e+01,2.593211399999999855e+01
4.700000000000000000e+01,2.600113500000000144e+01
4.800000000000000000e+01,2.607253299999999996e+01
4.900000000000000000e+01,2.614626900000000020e+01
5.000000000000000000e+01,2.622230100000000164e+01
5.100000000000000000e+01,2.630058700000000016e+01
5.200000000000000000e+01,2.638108099999999823e+01
5.300000000000000000e+01,2.646374499999999941e+01
5.400000000000000000e+01,2.654853100000000055e+01
5.500000000000000000e+01,2.663539700000000110e+01
5.600000000000000000e+01,2.672429800000000100e+01
5.700000000000000000e+01,2.681518900000000016e+01
5.800000000000000000e+01,2.690802800000000161e+01
5.900000000000000000e+01,2.700277099999999919e+01
6.000000000000000000e+01,2.709937700000000049e+01
6.100000000000000000e+01,2.719779799999999881e+01
6.200000000000000000e+01,2.729799300000000173e+01
6.300000000000000000e+01,2.739992099999999908e+01
6.400000000000000000e+01,2.750354400000000155e+01
6.500000000000000000e+01,2.760881600000000091e+01
6.600000000000000000e+01,2.771569799999999972e+01
6.700000000000000000e+01,2.782415400000000005e+01
6.800000000000000000e+01,2.793413899999999828e+01
6.900000000000000000e+01,2.804561800000000105e+01
7.000000000000000000e+01,2.815855200000000025e+01
7.100000000000000000e+01,2.827290700000000001e+01
7.200000000000000000e+01,2.838864699999999885e+01
7.300000000000000000e+01,2.850573199999999829e+01
7.400000000000000000e+01,2.862413000000000096e+01
7.500000000000000000e+01,2.874380700000000033e+01
7.600000000000000000e+01,2.886472699999999847e+01
7.700000000000000000e+01,2.898686199999999857e+01
7.800000000000000000e+01,2.911017999999999972e+01
7.900000000000000000e+01,2.923464600000000146e+01
8.000000000000000000e+01,2.936023099999999886e+01
8.100000000000000000e+01,2.948690799999999967e+01
8.200000000000000000e+01,2.961464499999999944e+01
8.300000000000000000e+01,2.974341400000000135e+01
8.400000000000000000e+01,2.987318600000000046e+01
8.500000000000000000e+01,3.000393700000000052e+01
8.600000000000000000e+01,3.013563699999999912e+01
8.700000000000000000e+01,3.026826499999999953e+01
8.800000000000000000e+01,3.040179099999999934e+01
8.900000000000000000e+01,3.053619000000000128e+01
9.000000000000000000e+01,3.067144400000000104e+01
9.100000000000000000e+01,3.080752400000000080e+01
9.200000000000000000e+01,3.094440700000000177e+01
9.300000000000000000e+01,3.108207499999999968e+01
9.400000000000000000e+01,3.122050099999999873e+01
9.500000000000000000e+01,3.135966900000000024e+01
9.600000000000000000e+01,3.149955399999999983e+01
9.700000000000000000e+01,3.164013900000000135e+01
9.800000000000000000e+01,3.178140300000000096e+01
9.900000000000000000e+01,3.192332800000000148e+01
1.000000000000000000e+02,3.206589499999999759e+01
1.010000000000000000e+02,3.220908399999999716e+01
1.020000000000000000e+02,3.235287900000000150e+01
1.030000000000000000e+02,3.249726100000000173e+01
1.040000000000000000e+02,3.264221599999999768e+01
1.050000000000000000e+02,3.278772399999999720e+01
1.060000000000000000e+02,3.293376899999999807e+01
1.070000000000000000e+02,3.308033799999999758e+01
1.080000000000000000e+02,3.322741299999999853e+01
1.090000000000000000e+02,3.337498500000000234e+01
1.100000000000000000e+02,3.352303299999999808e+01
1.110000000000000000e+02,3.367155100000000090e+01
1.120000000000000000e+02,3.382051500000000033e+01
1.130000000000000000e+02,3.396991299999999825e+01
1.140000000000000000e+02,3.411974000000000018e+01
1.150000000000000000e+02,3.426997800000000183e+01
1.160000000000000000e+02,3.442061199999999843e+01
1.170000000000000000e+02,3.457163599999999803e+01
1.180000000000000000e+02,3.472303800000000251e+01
1.190000000000000000e+02,3.487480200000000252e+01
1.200000000000000000e+02,3.502691699999999742e+01
1.210000000000000000e+02,3.517937500000000028e+01
1.220000000000000000e+02,3.533216099999999926e+01
1.230000000000000000e+02,3.548527500000000146e+01
1.240000000000000000e+02,3.563869499999999846e+01
1.250000000000000000e+02,3.579241900000000243e+01
1.260000000000000000e+02,3.594643400000000355e+01
1.270000000000000000e+02,3.610073100000000323e+01
1.280000000000000000e+02,3.625530200000000036e+01
1.290000000000000000e+02,3.641013699999999886e+01
1.300000000000000000e+02,3.656522799999999762e+01
1.310000000000000000e+02,3.672056599999999804e+01
1.320000000000000000e+02,3.687614399999999648e+01
1.330000000000000000e+02,3.703195600000000098e+01
1.340000000000000000e+02,3.718798799999999716e+01
1.350000000000000000e+02,3.734423400000000015e+01
1.360000000000000000e+02,3.750069400000000286e+01
1.370000000000000000e+02,3.765735600000000005e+01
1.380000000000000000e+02,3.781421300000000230e+01
1.390000000000000000e+02,3.797125599999999679e+01
1.400000000000000000e+02,3.812847899999999868e+01
1.410000000000000000e+02,3.828587699999999927e+01
1.420000000000000000e+02,3.844344699999999904e+01
1.430000000000000000e+02,3.860117300000000284e+01
1.440000000000000000e+02,3.875906400000000218e+01
1.450000000000000000e+02,3.891710299999999734e+01
1.460000000000000000e+02,3.907528700000000299e+01
1.470000000000000000e+02,3.923360799999999671e+01
1.480000000000000000e+02,3.939206300000000027e+01
1.490000000000000000e+02,3.955065199999999948e+01
1.500000000000000000e+02,3.970936199999999872e+01
1.510000000000000000e+02,3.986819100000000304e+01
1.520000000000000000e+02,4.002713399999999666e+01
1.530000000000000000e+02,4.018618800000000135e+01
1.540000000000000000e+02,4.034534500000000179e+01
1.550000000000000000e+02,4.050460400000000050e+01
1.560000000000000000e+02,4.066396000000000299e+01
1.570000000000000000e+02,4.082340599999999853e+01
1.580000000000000000e+02,4.098293699999999973e+01
1.590000000000000000e+02,4.114255500000000154e+01
1.600000000000000000e+02,4.130225399999999780e+01
1.610000000000000000e+02,4.146202900000000113e+01
1.620000000000000000e+02,4.162187600000000032e+01
1.630000000000000000e+02,4.178178799999999882e+01
1.640000000000000000e+02,4.194176900000000074e+01
1.650000000000000000e+02,4.210180700000000087e+01
1.660000000000000000e+02,4.226190900000000283e+01
1.670000000000000000e+02,4.242206199999999683e+01
1.680000000000000000e+02,4.258226799999999912e+01
1.690000000000000000e+02,4.274252299999999849e+01
1.700000000000000000e+02,4.290282400000000251e+01
1.710000000000000000e+02,4.306317099999999698e+01
1.720000000000000000e+02,4.322355300000000256e+01
1.730000000000000000e+02,4.338397199999999998e+01
1.740000000000000000e+02,4.354442999999999842e+01
1.750000000000000000e+02,4.370491799999999927e+01
1.760000000000000000e+02,4.386543700000000001e+01
1.770000000000000000e+02,4.402597800000000206e+01
1.780000000000000000e+02,4.418654599999999988e+01
1.790000000000000000e+02,4.434713699999999648e+01
1.800000000000000000e+02,4.450774799999999942e+01
1.810000000000000000e+02,4.466837300000000255e+01
1.820000000000000000e+02,4.482901799999999781e+01
1.830000000000000000e+02,4.498966999999999672e+01
1.840000000000000000e+02,4.515033700000000039e+01
1.850000000000000000e+02,4.531101199999999807e+01
1.860000000000000000e+02,4.547169499999999687e+01
1.870000000000000000e+02,4.563238100000000230e+01
1.880000000000000000e+02,4.579307200000000222e+01
1.890000000000000000e+02,4.595376199999999756e+01
1.900000000000000000e+02,4.611445599999999700e+01
1.910000000000000000e+02,4.627514299999999992e+01
1.920000000000000000e+02,4.643582899999999825e+01
1.930000000000000000e+02,4.659650800000000004e+01
1.940000000000000000e+02,4.675717900000000071e+01
1.950000000000000000e+02,4.691784299999999774e+01
1.960000000000000000e+02,4.707849900000000076e+01
1.970000000000000000e+02,4.723913999999999902e+01
1.980000000000000000e+02,4.739976500000000215e+01
1.990000000000000000e+02,4.756037899999999752e+01
2.000000000000000000e+02,4.772097800000000234e+01
2.010000000000000000e+02,4.788156099999999782e+01
2.020000000000000000e+02,4.804212199999999910e+01
2.030000000000000000e+02,4.820266300000000115e+01
2.040000000000000000e+02,4.836318599999999890e+01
2.050000000000000000e+02,4.852368200000000087e+01
2.060000000000000000e+02,4.868415799999999649e+01
2.070000000000000000e+02,4.884460800000000091e+01
2.080000000000000000e+02,4.900503199999999993e+01
2.090000000000000000e+02,4.916543200000000269e+01
2.100000000000000000e+02,4.932580200000000303e+01
2.110000000000000000e+02,4.948614100000000349e+01
2.120000000000000000e+02,4.964645399999999853e+01
2.130000000000000000e+02,4.980673600000000079e+01
2.140000000000000000e+02,4.996698399999999651e+01
2.150000000000000000e+02,5.012719700000000245e+01
2.160000000000000000e+02,5.028737999999999886e+01
2.170000000000000000e+02,5.044752900000000295e+01
2.180000000000000000e+02,5.060763899999999893e+01
2.190000000000000000e+02,5.076771500000000259e+01
2.200000000000000000e+02,5.092775300000000271e+01
2.210000000000000000e+02,5.108775299999999930e+01
2.220000000000000000e+02,5.124771899999999647e+01
2.230000000000000000e+02,5.140764200000000272e+01
2.240000000000000000e+02,5.156752399999999881e+01
2.250000000000000000e+02,5.172736700000000098e+01
2.260000000000000000e+02,5.188716500000000309e+01
2.270000000000000000e+02,5.204692500000000166e+01
2.280000000000000000e+02,5.220664200000000221e+01
2.290000000000000000e+02,5.236631400000000269e+01
2.300000000000000000e+02,5.252593999999999852e+01
2.310000000000000000e+02,5.268552400000000091e+01
2.320000000000000000e+02,5.284506199999999865e+01
2.330000000000000000e+02,5.300455500000000342e+01
2.340000000000000000e+02,5.316400099999999895e+01
2.350000000000000000e+02,5.332339900000000199e+01
2.360000000000000000e+02,5.348275000000000290e+01
2.370000000000000000e+02,5.364205199999999962e+01
2.380000000000000000e+02,5.380130400000000179e+01
2.390000000000000000e+02,5.396051400000000342e+01
2.400000000000000000e+02,5.411966699999999975e+01
2.410000000000000000e+02,5.427877399999999852e+01
2.420000000000000000e+02,5.443782800000000321e+01
2.430000000000000000e+02,5.459683199999999914e+01
2.440000000000000000e+02,5.475578699999999799e+01
2.450000000000000000e+02,5.491468799999999817e+01
2.460000000000000000e+02,5.507353599999999716e+01
2.470000000000000000e+02,5.523233400000000159e+01
2.480000000000000000e+02,5.539107500000000073e+01
2.490000000000000000e+02,5.554976700000000278e+01
2.500000000000000000e+02,5.570840499999999906e+01
2.510000000000000000e+02,5.586698899999999668e+01
2.520000000000000000e+02,5.602551700000000068e+01
2.530000000000000000e+02,5.618398700000000190e+01
2.540000000000000000e+02,5.634240299999999735e+01
2.550000000000000000e+02,5.650076700000000329e+01
2.560000000000000000e+02,5.665907299999999935e+01
2.570000000000000000e+02,5.681732600000000133e+01
2.580000000000000000e+02,5.697551700000000352e+01
2.590000000000000000e+02,5.713365600000000200e+01
2.600000000000000000e+02,5.729173699999999769e+01
2.610000000000000000e+02,5.744975999999999772e+01
2.620000000000000000e+02,5.760772699999999702e+01
2.630000000000000000e+02,5.776563300000000112e+01
2.640000000000000000e+02,5.792348100000000244e+01
2.650000000000000000e+02,5.808127199999999846e+01
2.660000000000000000e+02,5.823900600000000338e+01
2.670000000000000000e+02,5.839667899999999889e+01
2.680000000000000000e+02,5.855429500000000331e+01
2.690000000000000000e+02,5.871184900000000084e+01
2.700000000000000000e+02,5.886934699999999765e+01
2.710000000000000000e+02,5.902678300000000178e+01
2.720000000000000000e+02,5.918415799999999649e+01
2.730000000000000000e+02,5.934147300000000058e+01
2.740000000000000000e+02,5.949873000000000189e+01
2.750000000000000000e+02,5.965592600000000090e+01
2.760000000000000000e+02,5.981306099999999759e+01
2.770000000000000000e+02,5.997013499999999908e+01
2.780000000000000000e+02,6.012714799999999826e+01
2.790000000000000000e+02,6.028410000000000224e+01
2.800000000000000000e+02,6.044098699999999980e+01
2.810000000000000000e+02,6.059781600000000168e+01
2.820000000000000000e+02,6.075458100000000172e+01
2.830000000000000000e+02,6.091128899999999646e+01
2.840000000000000000e+02,6.106793199999999899e+01
2.850000000000000000e+02,6.122451399999999921e+01
2.860000000000000000e+02,6.138102700000000311e+01
2.870000000000000000e+02,6.153748699999999872e+01
2.880000000000000000e+02,6.169387799999999800e+01
2.890000000000000000e+02,6.185020800000000207e+01
2.900000000000000000e+02,6.200647399999999720e+01
2.910000000000000000e+02,6.216267799999999966e+01
2.920000000000000000e+02,6.231881700000000279e+01
2.930000000000000000e+02,6.247489499999999651e+01
2.940000000000000000e+02,6.263091299999999961e+01
2.950000000000000000e+02,6.278686100000000181e+01
2.960000000000000000e+02,6.294274500000000216e+01
2.970000000000000000e+02,6.309856800000000021e+01
2.980000000000000000e+02,6.325433000000000305e+01
2.990000000000000000e+02,6.341002699999999948e+01
3.000000000000000000e+02,6.356565499999999957e+01
3.010000000000000000e+02,6.372122199999999737e+01
3.020000000000000000e+02,6.387672400000000295e+01
3.030000000000000000e+02,6.403215799999999547e+01
3.040000000000000000e+02,6.418753100000000700e+01
3.050000000000000000e+02,6.434284200000000453e+01
3.060000000000000000e+02,6.449808500000000322e+01
3.070000000000000000e+02,6.465326699999999960e+01
3.080000000000000000e+02,6.480837999999999965e+01
3.090000000000000000e+02,6.496342500000000086e+01
3.100000000000000000e+02,6.511841599999999630e+01
3.110000000000000000e+02,6.527333099999999888e+01
3.120000000000000000e+02,6.542818499999999915e+01
3.130000000000000000e+02,6.558297699999999963e+01
3.140000000000000000e+02,6.573769400000000473e+01
3.150000000000000000e+02,6.589234899999999584e+01
3.160000000000000000e+02,6.604694399999999632e+01
3.170000000000000000e+02,6.620146900000000301e+01
3.180000000000000000e+02,6.635593400000000486e+01
3.190000000000000000e+02,6.651032999999999618e+01
3.200000000000000000e+02,6.666465800000000286e+01
3.210000000000000000e+02,6.681892399999999554e+01
3.220000000000000000e+02,6.697311399999999537e+01
3.230000000000000000e+02,6.712725100000000111e+01
3.240000000000000000e+02,6.728131899999999632e+01
3.250000000000000000e+02,6.743531799999999521e+01
3.260000000000000000e+02,6.758924899999999525e+01
3.270000000000000000e+02,6.774311099999999897e+01
3.280000000000000000e+02,6.789691899999999691e+01
3.290000000000000000e+02,6.805065199999999948e+01
3.300000000000000000e+02,6.820431499999999403e+01
3.310000000000000000e+02,6.835791799999999796e+01
3.320000000000000000e+02,6.851145200000000557e+01
3.330000000000000000e+02,6.866492499999999666e+01
3.340000000000000000e+02,6.881832900000000564e+01
3.350000000000000000e+02,6.897165699999999333e+01
3.360000000000000000e+02,6.912493100000000368e+01
3.370000000000000000e+02,6.927813700000000097e+01
3.380000000000000000e+02,6.943126700000000540e+01
3.390000000000000000e+02,6.958433499999999583e+01
3.400000000000000000e+02,6.973734299999999564e+01
3.410000000000000000e+02,6.989027400000000512e+01
3.420000000000000000e+02,7.004314399999999807e+01
3.430000000000000000e+02,7.019594600000000639e+01
3.440000000000000000e+02,7.034867900000000418e+01
3.450000000000000000e+02,7.050134300000000565e+01
3.460000000000000000e+02,7.065394600000000480e+01
3.470000000000000000e+02,7.080647999999999342e+01
3.480000000000000000e+02,7.095894599999999741e+01
3.490000000000000000e+02,7.111134300000000508e+01
3.500000000000000000e+02,7.126367199999999968e+01
3.510000000000000000e+02,7.141593899999999451e+01
3.520000000000000000e+02,7.156813800000000469e+01
3.530000000000000000e+02,7.172026099999999360e+01
3.540000000000000000e+02,7.187233000000000516e+01
3.550000000000000000e+02,7.202432299999999543e+01
3.560000000000000000e+02,7.217624700000000360e+01
3.570000000000000000e+02,7.232810999999999524e+01
3.580000000000000000e+02,7.247990400000000477e+01
3.590000000000000000e+02,7.263163000000000125e+01
3.600000000000000000e+02,7.278328700000000140e+01
3.610000000000000000e+02,7.293487500000000523e+01
3.620000000000000000e+02,7.308639499999999600e+01
3.630000000000000000e+02,7.323784600000000466e+01
3.640000000000000000e+02,7.338923599999999681e+01
3.650000000000000000e+02,7.354055800000000431e+01
3.660000000000000000e+02,7.369181100000000129e+01
3.670000000000000000e+02,7.384299500000000194e+01
3.680000000000000000e+02,7.399411000000000627e+01
3.690000000000000000e+02,7.414515699999999754e+01
3.700000000000000000e+02,7.429613500000000670e+01
3.710000000000000000e+02,7.444705199999999934e+01
3.720000000000000000e+02,7.459789299999999912e+01
3.730000000000000000e+02,7.474867199999999912e+01
3.740000000000000000e+02,7.489938399999999774e+01
3.750000000000000000e+02,7.505002600000000257e+01
3.760000000000000000e+02,7.520059999999999434e+01
3.770000000000000000e+02,7.535110500000000400e+01
3.780000000000000000e+02,7.550154100000000312e+01
3.790000000000000000e+02,7.565190900000000340e+01
3.800000000000000000e+02,7.580220799999999315e+01
3.810000000000000000e+02,7.595244599999999480e+01
3.820000000000000000e+02,7.610261500000000012e+01
3.830000000000000000e+02,7.625270799999999838e+01
3.840000000000000000e+02,7.640273999999999432e+01
3.850000000000000000e+02,7.655269599999999741e+01
3.860000000000000000e+02,7.670259099999999819e+01
3.870000000000000000e+02,7.685241700000000264e+01
3.880000000000000000e+02,7.700217399999999657e+01
3.890000000000000000e+02,7.715186300000000585e+01
3.900000000000000000e+02,7.730148300000000461e+01
3.910000000000000000e+02,7.745103500000000452e+01
3.920000000000000000e+02,7.760051699999999641e+01
3.930000000000000000e+02,7.774993100000000368e+01
3.940000000000000000e+02,7.789928399999999442e+01
3.950000000000000000e+02,7.804856100000000652e+01
3.960000000000000000e+02,7.819776899999999387e+01
3.970000000000000000e+02,7.834691599999999312e+01
3.980000000000000000e+02,7.849598699999999951e+01
3.990000000000000000e+02,7.864499700000000360e+01
4.000000000000000000e+02,7.879393000000000313e+01
4.010000000000000000e+02,7.894280200000000036e+01
4.020000000000000000e+02,7.909159900000000221e+01
4.030000000000000000e+02,7.924033400000000427e+01
4.040000000000000000e+02,7.938899200000000178e+01
4.050000000000000000e+02,7.953758999999999446e+01
4.060000000000000000e+02,7.968611900000000503e+01
4.070000000000000000e+02,7.983457199999999432e+01
4.080000000000000000e+02,7.998296399999999551e+01
4.090000000000000000e+02,8.013128700000000038e+01
4.100000000000000000e+02,8.027953300000000070e+01
4.110000000000000000e+02,8.042771899999999619e+01
4.120000000000000000e+02,8.057582899999999881e+01
4.130000000000000000e+02,8.072387700000000166e+01
4.140000000000000000e+02,8.087185700000000566e+01
4.150000000000000000e+02,8.101976799999999912e+01
4.160000000000000000e+02,8.116760999999999626e+01
4.170000000000000000e+02,8.131537600000000054e+01
4.180000000000000000e+02,8.146308100000000252e+01
4.190000000000000000e+02,8.161070999999999742e+01
4.200000000000000000e+02,8.175827800000000423e+01
4.210000000000000000e+02,8.190576900000000649e+01
4.220000000000000000e+02,8.205320000000000391e+01
4.230000000000000000e+02,8.220055399999999679e+01
4.240000000000000000e+02,8.234784700000000157e+01
4.250000000000000000e+02,8.249507099999999582e+01
4.260000000000000000e+02,8.264221999999999468e+01
4.270000000000000000e+02,8.278930699999999376e+01
4.280000000000000000e+02,8.293631700000000251e+01
4.290000000000000000e+02,8.308325999999999567e+01
4.300000000000000000e+02,8.323014100000000326e+01
4.310000000000000000e+02,8.337694500000000630e+01
4.320000000000000000e+02,8.352368199999999376e+01
4.330000000000000000e+02,8.367035699999999565e+01
4.340000000000000000e+02,8.381695600000000468e+01
4.350000000000000000e+02,8.396348600000000317e+01
4.360000000000000000e+02,8.410994700000000535e+01
4.370000000000000000e+02,8.425633999999999446e+01
4.380000000000000000e+02,8.440266400000000147e+01
4.390000000000000000e+02,8.454891999999999541e+01
4.400000000000000000e+02,8.469509899999999902e+01
4.410000000000000000e+02,8.484121700000000033e+01
4.420000000000000000e+02,8.498726700000000278e+01
4.430000000000000000e+02,8.513324699999999723e+01
4.440000000000000000e+02,8.527915199999999629e+01
4.450000000000000000e+02,8.542499499999999557e+01
4.460000000000000000e+02,8.557076299999999947e+01
4.470000000000000000e+02,8.571646099999999535e+01
4.480000000000000000e+02,8.586209100000000660e+01
4.490000000000000000e+02,8.600765199999999311e+01
4.500000000000000000e+02,8.615314499999999498e+01
4.510000000000000000e+02,8.629856900000000053e+01
4.520000000000000000e+02,8.644392399999999554e+01
4.530000000000000000e+02,8.658921100000000592e+01
4.540000000000000000e+02,8.673442099999999755e+01
4.550000000000000000e+02,8.687957000000000107e+01
4.560000000000000000e+02,8.702465100000000575e+01
4.570000000000000000e+02,8.716965500000000588e+01
4.580000000000000000e+02,8.731458999999999548e+01
4.590000000000000000e+02,8.745945700000000045e+01
4.600000000000000000e+02,8.760425600000000657e+01
4.610000000000000000e+02,8.774897799999999393e+01
4.620000000000000000e+02,8.789363899999999319e+01
4.630000000000000000e+02,8.803822300000000212e+01
4.640000000000000000e+02,8.818273899999999799e+01
4.650000000000000000e+02,8.832719400000000576e+01
4.660000000000000000e+02,8.847157300000000646e+01
4.670000000000000000e+02,8.861588299999999663e+01
4.680000000000000000e+02,8.876012400000000468e+01
4.690000000000000000e+02,8.890428900000000567e+01
4.700000000000000000e+02,8.904839300000000435e+01
4.710000000000000000e+02,8.919242099999999596e+01
4.720000000000000000e+02,8.933638000000000545e+01
4.730000000000000000e+02,8.948027000000000442e+01
4.740000000000000000e+02,8.962408399999999631e+01
4.750000000000000000e+02,8.976783799999999758e+01
4.760000000000000000e+02,8.991151399999999683e+01
4.770000000000000000e+02,9.005512199999999723e+01
4.780000000000000000e+02,9.019866199999999878e+01
4.790000000000000000e+02,9.034213300000000402e+01
4.800000000000000000e+02,9.048553499999999872e+01
4.810000000000000000e+02,9.062886000000000308e+01
4.820000000000000000e+02,9.077211800000000608e+01
4.830000000000000000e+02,9.091530600000000106e+01
4.840000000000000000e+02,9.105842599999999720e+01
4.850000000000000000e+02,9.120146900000000301e+01
4.860000000000000000e+02,9.134444399999999575e+01
4.870000000000000000e+02,9.148735000000000639e+01
4.880000000000000000e+02,9.163018800000000397e+01
4.890000000000000000e+02,9.177294899999999700e+01
4.900000000000000000e+02,9.191564200000000540e+01
4.910000000000000000e+02,9.205826600000000326e+01
4.920000000000000000e+02,9.220082100000000480e+01
4.930000000000000000e+02,9.234330699999999581e+01
4.940000000000000000e+02,9.248571800000000565e+01
4.950000000000000000e+02,9.262805899999999326e+01
4.960000000000000000e+02,9.277033199999999624e+01
4.970000000000000000e+02,9.291252900000000636e+01
4.980000000000000000e+02,9.305465700000000595e+01
4.990000000000000000e+02,9.319671599999999501e+01
5.000000000000000000e+02,9.333869900000000541e+01
5.010000000000000000e+02,9.348061400000000276e+01
5.020000000000000000e+02,9.362245900000000631e+01
5.030000000000000000e+02,9.376422900000000027e+01
5.040000000000000000e+02,9.390592999999999790e+01
5.050000000000000000e+02,9.404756199999999922e+01
5.060000000000000000e+02,9.418911699999999598e+01
5.070000000000000000e+02,9.433061200000000213e+01
5.080000000000000000e+02,9.447203100000000120e+01
5.090000000000000000e+02,9.461338000000000648e+01
5.100000000000000000e+02,9.475465400000000216e+01
5.110000000000000000e+02,9.489585099999999329e+01
5.120000000000000000e+02,9.503698699999999633e+01
5.130000000000000000e+02,9.517804700000000651e+01
5.140000000000000000e+02,9.531903099999999540e+01
5.150000000000000000e+02,9.545994600000000219e+01
5.160000000000000000e+02,9.560079199999999844e+01
5.170000000000000000e+02,9.574156200000000183e+01
5.180000000000000000e+02,9.588226299999999469e+01
5.190000000000000000e+02,9.602289600000000291e+01
5.200000000000000000e+02,9.616344499999999584e+01
5.210000000000000000e+02,9.630393200000000320e+01
5.220000000000000000e+02,9.644434400000000096e+01
5.230000000000000000e+02,9.658468600000000492e+01
5.240000000000000000e+02,9.672495299999999929e+01
5.250000000000000000e+02,9.686514999999999986e+01
5.260000000000000000e+02,9.700527200000000505e+01
5.270000000000000000e+02,9.714533199999999624e+01
5.280000000000000000e+02,9.728530899999999804e+01
5.290000000000000000e+02,9.742522400000000005e+01
5.300000000000000000e+02,9.756505599999999845e+01
5.310000000000000000e+02,9.770481900000000053e+01
5.320000000000000000e+02,9.784451300000000629e+01
5.330000000000000000e+02,9.798412299999999675e+01
5.340000000000000000e+02,9.812367199999999912e+01
5.350000000000000000e+02,9.826314499999999441e+01
5.360000000000000000e+02,9.840254199999999685e+01
5.370000000000000000e+02,9.854186199999999474e+01
5.380000000000000000e+02,9.868111399999999378e+01
5.390000000000000000e+02,9.882029699999999650e+01
5.400000000000000000e+02,9.895939599999999814e+01
5.410000000000000000e+02,9.909843399999999747e+01
5.420000000000000000e+02,9.923738899999999319e+01
5.430000000000000000e+02,9.937627399999999511e+01
5.440000000000000000e+02,9.951509099999999819e+01
5.450000000000000000e+02,9.965382400000000018e+01
5.460000000000000000e+02,9.979248800000000585e+01
5.470000000000000000e+02,9.993108399999999847e+01
5.480000000000000000e+02,1.000695999999999941e+02
5.490000000000000000e+02,1.002080500000000001e+02
5.500000000000000000e+02,1.003464100000000059e+02
5.510000000000000000e+02,1.004847100000000069e+02
5.520000000000000000e+02,1.006229299999999967e+02
5.530000000000000000e+02,1.007610899999999958e+02
5.540000000000000000e+02,1.008991500000000059e+02
5.550000000000000000e+02,1.010371600000000001e+02
5.560000000000000000e+02,1.011750899999999973e+02
5.570000000000000000e+02,1.013129299999999944e+02
5.580000000000000000e+02,1.014507100000000008e+02
5.590000000000000000e+02,1.015884099999999961e+02
5.600000000000000000e+02,1.017260399999999976e+02
5.610000000000000000e+02,1.018635900000000021e+02
5.620000000000000000e+02,1.020010699999999986e+02
5.630000000000000000e+02,1.021384699999999981e+02
5.640000000000000000e+02,1.022757900000000006e+02
5.650000000000000000e+02,1.024130499999999984e+02
5.660000000000000000e+02,1.025502199999999959e+02
5.670000000000000000e+02,1.026873300000000029e+02
5.680000000000000000e+02,1.028243599999999986e+02
5.690000000000000000e+02,1.029612999999999943e+02
5.700000000000000000e+02,1.030981799999999993e+02
5.710000000000000000e+02,1.032349799999999931e+02
5.720000000000000000e+02,1.033717000000000041e+02
5.730000000000000000e+02,1.035083499999999930e+02
5.740000000000000000e+02,1.036449199999999990e+02
5.750000000000000000e+02,1.037814199999999971e+02
5.760000000000000000e+02,1.039178399999999982e+02
5.770000000000000000e+02,1.040541800000000023e+02
5.780000000000000000e+02,1.041904399999999953e+02
5.790000000000000000e+02,1.043266399999999976e+02
5.800000000000000000e+02,1.044627499999999998e+02
5.810000000000000000e+02,1.045987899999999939e+02
5.820000000000000000e+02,1.047347400000000022e+02
5.830000000000000000e+02,1.048706300000000056e+02
5.840000000000000000e+02,1.050064299999999946e+02
5.850000000000000000e+02,1.051421600000000041e+02
5.860000000000000000e+02,1.052778100000000023e+02
5.870000000000000000e+02,1.054133800000000036e+02
5.880000000000000000e+02,1.055488799999999969e+02
5.890000000000000000e+02,1.056842999999999932e+02
5.900000000000000000e+02,1.058196400000000068e+02
5.910000000000000000e+02,1.059549099999999981e+02
5.920000000000000000e+02,1.060900900000000036e+02
5.930000000000000000e+02,1.062252000000000010e+02
5.940000000000000000e+02,1.063602300000000014e+02
5.950000000000000000e+02,1.064951800000000048e+02
5.960000000000000000e+02,1.066300499999999971e+02
5.970000000000000000e+02,1.067648499999999956e+02
5.980000000000000000e+02,1.068995599999999939e+02
5.990000000000000000e+02,1.070341899999999953e+02