# Time [s], Mass [Kg]
1.000000000000000000e+00,1.000000000000000000e+00
2.000000000000000000e+00,1.000000000000000000e+00
3.000000000000000000e+00,1.000000000000000000e+00
4.000000000000000000e+00,1.000000000000000000e+00
5.000000000000000000e+00,1.000000000000000000e+00
6.000000000000000000e+00,1.000000000000000000e+00
7.000000000000000000e+00,9.999999400000000316e-01
8.000000000000000000e+00,9.999996399999999674e-01
9.000000000000000000e+00,9.999985099999999516e-01
1.000000000000000000e+01,9.999946400000000457e-01
1.100000000000000000e+01,9.999831900000000218e-01
1.200000000000000000e+01,9.999544599999999894e-01
1.300000000000000000e+01,9.998910399999999532e-01
1.400000000000000000e+01,9.997648599999999774e-01
1.500000000000000000e+01,9.995350800000000202e-01
1.600000000000000000e+01,9.991493200000000074e-01
1.700000000000000000e+01,9.985514300000000176e-01
1.800000000000000000e+01,9.976987800000000073e-01
1.900000000000000000e+01,9.965701700000000329e-01
2.000000000000000000e+01,9.951813200000000359e-01
2.100000000000000000e+01,9.935995300000000086e-01
2.200000000000000000e+01,9.918792199999999504e-01
2.300000000000000000e+01,9.901090299999999456e-01
2.400000000000000000e+01,9.884146999999999794e-01
2.500000000000000000e+01,9.868506200000000117e-01
2.600000000000000000e+01,9.855025400000000380e-01
2.700000000000000000e+01,9.844123700000000365e-01
2.800000000000000000e+01,9.834880799999999867e-01
2.900000000000000000e+01,9.824956099999999637e-01
3.000000000000000000e+01,9.812956999999999930e-01
3.100000000000000000e+01,9.799295700000000275e-01
3.200000000000000000e+01,9.784516699999999956e-01
3.300000000000000000e+01,9.769203699999999824e-01
3.400000000000000000e+01,9.753946700000000192e-01
3.500000000000000000e+01,9.739294600000000246e-01
3.600000000000000000e+01,9.725709000000000160e-01
3.700000000000000000e+01,9.713483499999999715e-01
3.800000000000000000e+01,9.702622300000000033e-01
3.900000000000000000e+01,9.692716599999999794e-01
4.000000000000000000e+01,9.682956900000000422e-01
4.100000000000000000e+01,9.672464699999999693e-01
4.200000000000000000e+01,9.660823899999999576e-01
4.300000000000000000e+01,9.648295000000000066e-01
4.400000000000000000e+01,9.635213000000000250e-01
4.500000000000000000e+01,9.621921799999999525e-01
4.600000000000000000e+01,9.608759900000000131e-01
4.700000000000000000e+01,9.596029499999999546e-01
4.800000000000000000e+01,9.583967300000000300e-01
4.900000000000000000e+01,9.572707999999999773e-01
5.000000000000000000e+01,9.562243200000000165e-01
5.100000000000000000e+01,9.552393000000000134e-01
5.200000000000000000e+01,9.542816899999999602e-01
5.300000000000000000e+01,9.533103699999999625e-01
5.400000000000000000e+01,9.522920299999999560e-01
5.500000000000000000e+01,9.512150900000000409e-01
5.600000000000000000e+01,9.500885599999999709e-01
5.700000000000000000e+01,9.489321699999999637e-01
5.800000000000000000e+01,9.477655299999999672e-01
5.900000000000000000e+01,9.466074100000000380e-01
6.000000000000000000e+01,9.454741500000000132e-01
6.100000000000000000e+01,9.443786699999999756e-01
6.200000000000000000e+01,9.433288600000000468e-01
6.300000000000000000e+01,9.423255900000000462e-01
6.400000000000000000e+01,9.413627399999999756e-01
6.500000000000000000e+01,9.404262300000000296e-01
6.600000000000000000e+01,9.394973500000000088e-01
6.700000000000000000e+01,9.385563700000000287e-01
6.800000000000000000e+01,9.375887499999999708e-01
6.900000000000000000e+01,9.365884100000000378e-01
7.000000000000000000e+01,9.355582599999999749e-01
7.100000000000000000e+01,9.345076700000000125e-01
7.200000000000000000e+01,9.334481399999999818e-01
7.300000000000000000e+01,9.323908100000000143e-01
7.400000000000000000e+01,9.313456399999999746e-01
7.500000000000000000e+01,9.303203799999999468e-01
7.600000000000000000e+01,9.293202200000000301e-01
7.700000000000000000e+01,9.283469300000000146e-01
7.800000000000000000e+01,9.273985599999999829e-01
7.900000000000000000e+01,9.264692700000000114e-01
8.000000000000000000e+01,9.255503999999999953e-01
8.100000000000000000e+01,9.246313600000000132e-01
8.200000000000000000e+01,9.237020599999999915e-01
8.300000000000000000e+01,9.227549400000000235e-01
8.400000000000000000e+01,9.217866700000000302e-01
8.500000000000000000e+01,9.207984200000000063e-01
8.600000000000000000e+01,9.197948000000000235e-01
8.700000000000000000e+01,9.187825299999999862e-01
8.800000000000000000e+01,9.177686000000000455e-01
8.900000000000000000e+01,9.167593099999999939e-01
9.000000000000000000e+01,9.157597400000000443e-01
9.100000000000000000e+01,9.147732299999999928e-01
9.200000000000000000e+01,9.138010100000000246e-01
9.300000000000000000e+01,9.128420900000000504e-01
9.400000000000000000e+01,9.118933700000000364e-01
9.500000000000000000e+01,9.109497699999999920e-01
9.600000000000000000e+01,9.100053299999999457e-01
9.700000000000000000e+01,9.090535600000000382e-01
9.800000000000000000e+01,9.080893399999999671e-01
9.900000000000000000e+01,9.071092600000000283e-01
1.000000000000000000e+02,9.061126699999999534e-01
1.010000000000000000e+02,9.051011799999999496e-01
1.020000000000000000e+02,9.040784200000000492e-01
1.030000000000000000e+02,9.030487499999999557e-01
1.040000000000000000e+02,9.020167000000000046e-01
1.050000000000000000e+02,9.009860800000000225e-01
1.060000000000000000e+02,8.999596199999999602e-01
1.070000000000000000e+02,8.989386000000000321e-01
1.080000000000000000e+02,8.979226399999999941e-01
1.090000000000000000e+02,8.969100700000000037e-01
1.100000000000000000e+02,8.958978100000000167e-01
1.110000000000000000e+02,8.948819000000000079e-01
1.120000000000000000e+02,8.938581899999999969e-01
1.130000000000000000e+02,8.928227399999999481e-01
1.140000000000000000e+02,8.917729899999999876e-01
1.150000000000000000e+02,8.907076699999999514e-01
1.160000000000000000e+02,8.896272800000000203e-01
1.170000000000000000e+02,8.885337100000000321e-01
1.180000000000000000e+02,8.874297100000000382e-01
1.190000000000000000e+02,8.863183900000000115e-01
1.200000000000000000e+02,8.852024099999999951e-01
1.210000000000000000e+02,8.840836300000000092e-01
1.220000000000000000e+02,8.829627599999999576e-01
1.230000000000000000e+02,8.818395100000000486e-01
1.240000000000000000e+02,8.807122099999999953e-01
1.250000000000000000e+02,8.795784700000000011e-01
1.260000000000000000e+02,8.784353099999999692e-01
1.270000000000000000e+02,8.772797599999999640e-01
1.280000000000000000e+02,8.761090599999999950e-01
1.290000000000000000e+02,8.749215000000000186e-01
1.300000000000000000e+02,8.737163500000000305e-01
1.310000000000000000e+02,8.724942799999999554e-01
1.320000000000000000e+02,8.712565300000000290e-01
1.330000000000000000e+02,8.700048299999999513e-01
1.340000000000000000e+02,8.687411499999999620e-01
1.350000000000000000e+02,8.674665700000000479e-01
1.360000000000000000e+02,8.661817899999999515e-01
1.370000000000000000e+02,8.648862800000000073e-01
1.380000000000000000e+02,8.635788599999999482e-01
1.390000000000000000e+02,8.622573599999999727e-01
1.400000000000000000e+02,8.609195899999999568e-01
1.410000000000000000e+02,8.595630499999999952e-01
1.420000000000000000e+02,8.581859499999999752e-01
1.430000000000000000e+02,8.567868499999999887e-01
1.440000000000000000e+02,8.553653399999999740e-01
1.450000000000000000e+02,8.539217099999999450e-01
1.460000000000000000e+02,8.524568700000000332e-01
1.470000000000000000e+02,8.509718800000000138e-01
1.480000000000000000e+02,8.494676899999999975e-01
1.490000000000000000e+02,8.479448600000000225e-01
1.500000000000000000e+02,8.464031800000000327e-01
1.510000000000000000e+02,8.448420800000000508e-01
1.520000000000000000e+02,8.432604099999999603e-01
1.530000000000000000e+02,8.416567400000000143e-01
1.540000000000000000e+02,8.400298999999999960e-01
1.550000000000000000e+02,8.383790300000000251e-01
1.560000000000000000e+02,8.367038999999999449e-01
1.570000000000000000e+02,8.350048700000000101e-01
1.580000000000000000e+02,8.332830700000000146e-01
1.590000000000000000e+02,8.315398699999999588e-01
1.600000000000000000e+02,8.297768800000000500e-01
1.610000000000000000e+02,8.279954800000000059e-01
1.620000000000000000e+02,8.261969700000000305e-01
1.630000000000000000e+02,8.243821300000000463e-01
1.640000000000000000e+02,8.225516699999999570e-01
1.650000000000000000e+02,8.207060099999999858e-01
1.660000000000000000e+02,8.188458100000000073e-01
1.670000000000000000e+02,8.169718999999999731e-01
1.680000000000000000e+02,8.150854699999999786e-01
1.690000000000000000e+02,8.131882000000000277e-01
1.700000000000000000e+02,8.112821599999999744e-01
1.710000000000000000e+02,8.093694399999999955e-01
1.720000000000000000e+02,8.074523200000000012e-01
1.730000000000000000e+02,8.055328099999999880e-01
1.740000000000000000e+02,8.036126500000000394e-01
1.750000000000000000e+02,8.016933800000000110e-01
1.760000000000000000e+02,7.997762000000000482e-01
1.770000000000000000e+02,7.978624100000000219e-01
1.780000000000000000e+02,7.959532099999999666e-01
1.790000000000000000e+02,7.940498599999999962e-01
1.800000000000000000e+02,7.921538900000000272e-01
1.810000000000000000e+02,7.902669300000000341e-01
1.820000000000000000e+02,7.883905199999999835e-01
1.830000000000000000e+02,7.865263200000000010e-01
1.840000000000000000e+02,7.846757800000000449e-01
1.850000000000000000e+02,7.828401299999999674e-01
1.860000000000000000e+02,7.810204600000000275e-01
1.870000000000000000e+02,7.792175999999999547e-01
1.880000000000000000e+02,7.774324999999999708e-01
1.890000000000000000e+02,7.756659399999999982e-01
1.900000000000000000e+02,7.739188700000000365e-01
1.910000000000000000e+02,7.721922399999999742e-01
1.920000000000000000e+02,7.704870700000000516e-01
1.930000000000000000e+02,7.688045500000000310e-01
1.940000000000000000e+02,7.671455700000000544e-01
1.950000000000000000e+02,7.655112699999999659e-01
1.960000000000000000e+02,7.639024899999999896e-01
1.970000000000000000e+02,7.623200999999999450e-01
1.980000000000000000e+02,7.607649600000000456e-01
1.990000000000000000e+02,7.592381200000000163e-01
2.000000000000000000e+02,7.577403799999999912e-01
2.010000000000000000e+02,7.562729700000000443e-01
2.020000000000000000e+02,7.548369799999999907e-01
2.030000000000000000e+02,7.534337599999999524e-01
2.040000000000000000e+02,7.520646500000000012e-01
2.050000000000000000e+02,7.507309300000000185e-01
2.060000000000000000e+02,7.494341700000000106e-01
2.070000000000000000e+02,7.481757999999999464e-01
2.080000000000000000e+02,7.469574199999999831e-01
2.090000000000000000e+02,7.457807100000000133e-01
2.100000000000000000e+02,7.446475599999999861e-01
2.110000000000000000e+02,7.435599000000000514e-01
2.120000000000000000e+02,7.425198600000000315e-01
2.130000000000000000e+02,7.415296399999999899e-01
2.140000000000000000e+02,7.405915299999999979e-01
2.150000000000000000e+02,7.397079500000000030e-01
2.160000000000000000e+02,7.388812900000000239e-01
2.170000000000000000e+02,7.381138800000000000e-01
2.180000000000000000e+02,7.374081000000000108e-01
2.190000000000000000e+02,7.367662200000000272e-01
2.200000000000000000e+02,7.361900200000000005e-01
2.210000000000000000e+02,7.356810000000000294e-01
2.220000000000000000e+02,7.352399800000000152e-01
2.230000000000000000e+02,7.348668000000000422e-01
2.240000000000000000e+02,7.345600700000000094e-01
2.250000000000000000e+02,7.343168300000000315e-01
2.260000000000000000e+02,7.341324099999999575e-01
2.270000000000000000e+02,7.340002100000000418e-01
2.280000000000000000e+02,7.339119299999999901e-01
2.290000000000000000e+02,7.338581100000000079e-01
2.300000000000000000e+02,7.338289599999999746e-01
2.310000000000000000e+02,7.338153699999999668e-01
2.320000000000000000e+02,7.338103099999999657e-01
2.330000000000000000e+02,7.338089300000000259e-01
2.340000000000000000e+02,7.338086999999999804e-01
2.350000000000000000e+02,7.338086999999999804e-01
2.360000000000000000e+02,7.338086999999999804e-01
2.370000000000000000e+02,7.338086999999999804e-01
2.380000000000000000e+02,7.338086999999999804e-01
2.390000000000000000e+02,7.338086999999999804e-01
2.400000000000000000e+02,7.338086999999999804e-01
2.410000000000000000e+02,7.338086999999999804e-01
2.420000000000000000e+02,7.338086999999999804e-01
2.430000000000000000e+02,7.338086999999999804e-01
2.440000000000000000e+02,7.338086999999999804e-01
2.450000000000000000e+02,7.338086999999999804e-01
2.460000000000000000e+02,7.338086999999999804e-01
2.470000000000000000e+02,7.338086999999999804e-01
2.480000000000000000e+02,7.338086999999999804e-01
2.490000000000000000e+02,7.338086999999999804e-01
2.500000000000000000e+02,7.338086999999999804e-01
2.510000000000000000e+02,7.338086999999999804e-01
2.520000000000000000e+02,7.338086999999999804e-01
2.530000000000000000e+02,7.338086999999999804e-01
2.540000000000000000e+02,7.338086999999999804e-01
2.550000000000000000e+02,7.338086999999999804e-01
2.560000000000000000e+02,7.338086999999999804e-01
2.570000000000000000e+02,7.338086999999999804e-01
2.580000000000000000e+02,7.338086999999999804e-01
2.590000000000000000e+02,7.338086999999999804e-01
2.600000000000000000e+02,7.338086999999999804e-01
2.610000000000000000e+02,7.338086999999999804e-01
2.620000000000000000e+02,7.338086999999999804e-01
2.630000000000000000e+02,7.338086999999999804e-01
2.640000000000000000e+02,7.338086999999999804e-01
2.650000000000000000e+02,7.338086999999999804e-01
2.660000000000000000e+02,7.338086999999999804e-01
2.670000000000000000e+02,7.338086999999999804e-01
2.680000000000000000e+02,7.338086999999999804e-01
2.690000000000000000e+02,7.338086999999999804e-01
2.700000000000000000e+02,7.338086999999999804e-01
2.710000000000000000e+02,7.338086999999999804e-01
2.720000000000000000e+02,7.338086999999999804e-01
2.730000000000000000e+02,7.338086999999999804e-01
2.740000000000000000e+02,7.338086999999999804e-01
2.750000000000000000e+02,7.338086999999999804e-01
2.760000000000000000e+02,7.338086999999999804e-01
2.770000000000000000e+02,7.338086999999999804e-01
2.780000000000000000e+02,7.338086999999999804e-01
2.790000000000000000e+02,7.338086999999999804e-01
2.800000000000000000e+02,7.338086999999999804e-01
2.810000000000000000e+02,7.338086999999999804e-01
2.820000000000000000e+02,7.338086999999999804e-01
2.830000000000000000e+02,7.338086999999999804e-01
2.840000000000000000e+02,7.338086999999999804e-01
2.850000000000000000e+02,7.338086999999999804e-01
2.860000000000000000e+02,7.338086999999999804e-01
2.870000000000000000e+02,7.338086999999999804e-01
2.880000000000000000e+02,7.338086999999999804e-01
2.890000000000000000e+02,7.338086999999999804e-01
2.900000000000000000e+02,7.338086999999999804e-01
2.910000000000000000e+02,7.338086999999999804e-01
2.920000000000000000e+02,7.338086999999999804e-01
2.930000000000000000e+02,7.338086999999999804e-01
2.940000000000000000e+02,7.338086999999999804e-01
2.950000000000000000e+02,7.338086999999999804e-01
2.960000000000000000e+02,7.338086999999999804e-01
2.970000000000000000e+02,7.338086999999999804e-01
2.980000000000000000e+02,7.338086999999999804e-01
2.990000000000000000e+02,7.338086999999999804e-01
3.000000000000000000e+02,7.338086999999999804e-01
3.010000000000000000e+02,7.338086999999999804e-01
3.020000000000000000e+02,7.338086999999999804e-01
3.030000000000000000e+02,7.338086999999999804e-01
3.040000000000000000e+02,7.338086999999999804e-01
3.050000000000000000e+02,7.338086999999999804e-01
3.060000000000000000e+02,7.338086999999999804e-01
3.070000000000000000e+02,7.338086999999999804e-01
3.080000000000000000e+02,7.338086999999999804e-01
3.090000000000000000e+02,7.338086999999999804e-01
3.100000000000000000e+02,7.338086999999999804e-01
3.110000000000000000e+02,7.338086999999999804e-01
3.120000000000000000e+02,7.338086999999999804e-01
3.130000000000000000e+02,7.338086999999999804e-01
3.140000000000000000e+02,7.338086999999999804e-01
3.150000000000000000e+02,7.338086999999999804e-01
3.160000000000000000e+02,7.338086999999999804e-01
3.170000000000000000e+02,7.338086999999999804e-01
3.180000000000000000e+02,7.338086999999999804e-01
3.190000000000000000e+02,7.338086999999999804e-01
3.200000000000000000e+02,7.338086999999999804e-01
3.210000000000000000e+02,7.338086999999999804e-01
3.220000000000000000e+02,7.338086999999999804e-01
3.230000000000000000e+02,7.338086999999999804e-01
3.240000000000000000e+02,7.338086999999999804e-01
3.250000000000000000e+02,7.338086999999999804e-01
3.260000000000000000e+02,7.338086999999999804e-01
3.270000000000000000e+02,7.338086999999999804e-01
3.280000000000000000e+02,7.338086999999999804e-01
3.290000000000000000e+02,7.338086999999999804e-01
3.300000000000000000e+02,7.338086999999999804e-01
3.310000000000000000e+02,7.338086999999999804e-01
3.320000000000000000e+02,7.338086999999999804e-01
3.330000000000000000e+02,7.338086999999999804e-01
3.340000000000000000e+02,7.338086999999999804e-01
3.350000000000000000e+02,7.338086999999999804e-01
3.360000000000000000e+02,7.338086999999999804e-01
3.370000000000000000e+02,7.338086999999999804e-01
3.380000000000000000e+02,7.338086999999999804e-01
3.390000000000000000e+02,7.338086999999999804e-01
3.400000000000000000e+02,7.338086999999999804e-01
3.410000000000000000e+02,7.338086999999999804e-01
3.420000000000000000e+02,7.338086999999999804e-01
3.430000000000000000e+02,7.338086999999999804e-01
3.440000000000000000e+02,7.338086999999999804e-01
3.450000000000000000e+02,7.338086999999999804e-01
3.460000000000000000e+02,7.338086999999999804e-01
3.470000000000000000e+02,7.338086999999999804e-01
3.480000000000000000e+02,7.338086999999999804e-01
3.490000000000000000e+02,7.338086999999999804e-01
3.500000000000000000e+02,7.338086999999999804e-01
3.510000000000000000e+02,7.338086999999999804e-01
3.520000000000000000e+02,7.338086999999999804e-01
3.530000000000000000e+02,7.338086999999999804e-01
3.540000000000000000e+02,7.338086999999999804e-01
3.550000000000000000e+02,7.338086999999999804e-01
3.560000000000000000e+02,7.338086999999999804e-01
3.570000000000000000e+02,7.338086999999999804e-01
3.580000000000000000e+02,7.338086999999999804e-01
3.590000000000000000e+02,7.338086999999999804e-01
3.600000000000000000e+02,7.338086999999999804e-01
3.610000000000000000e+02,7.338086999999999804e-01
3.620000000000000000e+02,7.338086999999999804e-01
3.630000000000000000e+02,7.338086999999999804e-01
3.640000000000000000e+02,7.338086999999999804e-01
3.650000000000000000e+02,7.338086999999999804e-01
3.660000000000000000e+02,7.338086999999999804e-01
3.670000000000000000e+02,7.338086999999999804e-01
3.680000000000000000e+02,7.338086999999999804e-01
3.690000000000000000e+02,7.338086999999999804e-01
3.700000000000000000e+02,7.338086999999999804e-01
3.710000000000000000e+02,7.338086999999999804e-01
3.720000000000000000e+02,7.338086999999999804e-01
3.730000000000000000e+02,7.338086999999999804e-01
3.740000000000000000e+02,7.338086999999999804e-01
3.750000000000000000e+02,7.338086999999999804e-01
3.760000000000000000e+02,7.338086999999999804e-01
3.770000000000000000e+02,7.338086999999999804e-01
3.780000000000000000e+02,7.338086999999999804e-01
3.790000000000000000e+02,7.338086999999999804e-01
3.800000000000000000e+02,7.338086999999999804e-01
3.810000000000000000e+02,7.338086999999999804e-01
3.820000000000000000e+02,7.338086999999999804e-01
3.830000000000000000e+02,7.338086999999999804e-01
3.840000000000000000e+02,7.338086999999999804e-01
3.850000000000000000e+02,7.338086999999999804e-01
3.860000000000000000e+02,7.338086999999999804e-01
3.870000000000000000e+02,7.338086999999999804e-01
3.880000000000000000e+02,7.338086999999999804e-01
3.890000000000000000e+02,7.338086999999999804e-01
3.900000000000000000e+02,7.338086999999999804e-01
3.910000000000000000e+02,7.338086999999999804e-01
3.920000000000000000e+02,7.338086999999999804e-01
3.930000000000000000e+02,7.338086999999999804e-01
3.940000000000000000e+02,7.338086999999999804e-01
3.950000000000000000e+02,7.338086999999999804e-01
3.960000000000000000e+02,7.338086999999999804e-01
3.970000000000000000e+02,7.338086999999999804e-01
3.980000000000000000e+02,7.338086999999999804e-01
3.990000000000000000e+02,7.338086999999999804e-01
4.000000000000000000e+02,7.338086999999999804e-01
4.010000000000000000e+02,7.338086999999999804e-01
4.020000000000000000e+02,7.338086999999999804e-01
4.030000000000000000e+02,7.338086999999999804e-01
4.040000000000000000e+02,7.338086999999999804e-01
4.050000000000000000e+02,7.338086999999999804e-01
4.060000000000000000e+02,7.338086999999999804e-01
4.070000000000000000e+02,7.338086999999999804e-01
4.080000000000000000e+02,7.338086999999999804e-01
4.090000000000000000e+02,7.338086999999999804e-01
4.100000000000000000e+02,7.338086999999999804e-01
4.110000000000000000e+02,7.338086999999999804e-01
4.120000000000000000e+02,7.338086999999999804e-01
4.130000000000000000e+02,7.338086999999999804e-01
4.140000000000000000e+02,7.338086999999999804e-01
4.150000000000000000e+02,7.338086999999999804e-01
4.160000000000000000e+02,7.338086999999999804e-01
4.170000000000000000e+02,7.338086999999999804e-01
4.180000000000000000e+02,7.338086999999999804e-01
4.190000000000000000e+02,7.338086999999999804e-01
4.200000000000000000e+02,7.338086999999999804e-01
4.210000000000000000e+02,7.338086999999999804e-01
4.220000000000000000e+02,7.338086999999999804e-01
4.230000000000000000e+02,7.338086999999999804e-01
4.240000000000000000e+02,7.338086999999999804e-01
4.250000000000000000e+02,7.338086999999999804e-01
4.260000000000000000e+02,7.338086999999999804e-01
4.270000000000000000e+02,7.338086999999999804e-01
4.280000000000000000e+02,7.338086999999999804e-01
4.290000000000000000e+02,7.338086999999999804e-01
4.300000000000000000e+02,7.338086999999999804e-01
4.310000000000000000e+02,7.338086999999999804e-01
4.320000000000000000e+02,7.338086999999999804e-01
4.330000000000000000e+02,7.338086999999999804e-01
4.340000000000000000e+02,7.338086999999999804e-01
4.350000000000000000e+02,7.338086999999999804e-01
4.360000000000000000e+02,7.338086999999999804e-01
4.370000000000000000e+02,7.338086999999999804e-01
4.380000000000000000e+02,7.338086999999999804e-01
4.390000000000000000e+02,7.338086999999999804e-01
4.400000000000000000e+02,7.338086999999999804e-01
4.410000000000000000e+02,7.338086999999999804e-01
4.420000000000000000e+02,7.338086999999999804e-01
4.430000000000000000e+02,7.338086999999999804e-01
4.440000000000000000e+02,7.338086999999999804e-01
4.450000000000000000e+02,7.338086999999999804e-01
4.460000000000000000e+02,7.338086999999999804e-01
4.470000000000000000e+02,7.338086999999999804e-01
4.480000000000000000e+02,7.338086999999999804e-01
4.490000000000000000e+02,7.338086999999999804e-01
4.500000000000000000e+02,7.338086999999999804e-01
4.510000000000000000e+02,7.338086999999999804e-01
4.520000000000000000e+02,7.338086999999999804e-01
4.530000000000000000e+02,7.338086999999999804e-01
4.540000000000000000e+02,7.338086999999999804e-01
4.550000000000000000e+02,7.338086999999999804e-01
4.560000000000000000e+02,7.338086999999999804e-01
4.570000000000000000e+02,7.338086999999999804e-01
4.580000000000000000e+02,7.338086999999999804e-01
4.590000000000000000e+02,7.338086999999999804e-01
4.600000000000000000e+02,7.338086999999999804e-01
4.610000000000000000e+02,7.338086999999999804e-01
4.620000000000000000e+02,7.338086999999999804e-01
4.630000000000000000e+02,7.338086999999999804e-01
4.640000000000000000e+02,7.338086999999999804e-01
4.650000000000000000e+02,7.338086999999999804e-01
4.660000000000000000e+02,7.338086999999999804e-01
4.670000000000000000e+02,7.338086999999999804e-01
4.680000000000000000e+02,7.338086999999999804e-01
4.690000000000000000e+02,7.338086999999999804e-01
4.700000000000000000e+02,7.338086999999999804e-01
4.710000000000000000e+02,7.338086999999999804e-01
4.720000000000000000e+02,7.338086999999999804e-01
4.730000000000000000e+02,7.338086999999999804e-01
4.740000000000000000e+02,7.338086999999999804e-01
4.750000000000000000e+02,7.338086999999999804e-01
4.760000000000000000e+02,7.338086999999999804e-01
4.770000000000000000e+02,7.338086999999999804e-01
4.780000000000000000e+02,7.338086999999999804e-01
4.790000000000000000e+02,7.338086999999999804e-01
4.800000000000000000e+02,7.338086999999999804e-01
4.810000000000000000e+02,7.338086999999999804e-01
4.820000000000000000e+02,7.338086999999999804e-01
4.830000000000000000e+02,7.338086999999999804e-01
4.840000000000000000e+02,7.338086999999999804e-01
4.850000000000000000e+02,7.338086999999999804e-01
4.860000000000000000e+02,7.338086999999999804e-01
4.870000000000000000e+02,7.338086999999999804e-01
4.880000000000000000e+02,7.338086999999999804e-01
4.890000000000000000e+02,7.338086999999999804e-01
4.900000000000000000e+02,7.338086999999999804e-01
4.910000000000000000e+02,7.338086999999999804e-01
4.920000000000000000e+02,7.338086999999999804e-01
4.930000000000000000e+02,7.338086999999999804e-01
4.940000000000000000e+02,7.338086999999999804e-01
4.950000000000000000e+02,7.338086999999999804e-01
4.960000000000000000e+02,7.338086999999999804e-01
4.970000000000000000e+02,7.338086999999999804e-01
4.980000000000000000e+02,7.338086999999999804e-01
4.990000000000000000e+02,7.338086999999999804e-01
5.000000000000000000e+02,7.338086999999999804e-01
5.010000000000000000e+02,7.338086999999999804e-01
5.020000000000000000e+02,7.338086999999999804e-01
5.030000000000000000e+02,7.338086999999999804e-01
5.040000000000000000e+02,7.338086999999999804e-01
5.050000000000000000e+02,7.338086999999999804e-01
5.060000000000000000e+02,7.338086999999999804e-01
5.070000000000000000e+02,7.338086999999999804e-01
5.080000000000000000e+02,7.338086999999999804e-01
5.090000000000000000e+02,7.338086999999999804e-01
5.100000000000000000e+02,7.338086999999999804e-01
5.110000000000000000e+02,7.338086999999999804e-01
5.120000000000000000e+02,7.338086999999999804e-01
5.130000000000000000e+02,7.338086999999999804e-01
5.140000000000000000e+02,7.338086999999999804e-01
5.150000000000000000e+02,7.338086999999999804e-01
5.160000000000000000e+02,7.338086999999999804e-01
5.170000000000000000e+02,7.338086999999999804e-01
5.180000000000000000e+02,7.338086999999999804e-01
5.190000000000000000e+02,7.338086999999999804e-01
5.200000000000000000e+02,7.338086999999999804e-01
5.210000000000000000e+02,7.338086999999999804e-01
5.220000000000000000e+02,7.338086999999999804e-01
5.230000000000000000e+02,7.338086999999999804e-01
5.240000000000000000e+02,7.338086999999999804e-01
5.250000000000000000e+02,7.338086999999999804e-01
5.260000000000000000e+02,7.338086999999999804e-01
5.270000000000000000e+02,7.338086999999999804e-01
5.280000000000000000e+02,7.338086999999999804e-01
5.290000000000000000e+02,7.338086999999999804e-01
5.300000000000000000e+02,7.338086999999999804e-01
5.310000000000000000e+02,7.338086999999999804e-01
5.320000000000000000e+02,7.338086999999999804e-01
5.330000000000000000e+02,7.338086999999999804e-01
5.340000000000000000e+02,7.338086999999999804e-01
5.350000000000000000e+02,7.338086999999999804e-01
5.360000000000000000e+02,7.338086999999999804e-01
5.370000000000000000e+02,7.338086999999999804e-01
5.380000000000000000e+02,7.338086999999999804e-01
5.390000000000000000e+02,7.338086999999999804e-01
5.400000000000000000e+02,7.338086999999999804e-01
5.410000000000000000e+02,7.338086999999999804e-01
5.420000000000000000e+02,7.338086999999999804e-01
5.430000000000000000e+02,7.338086999999999804e-01
5.440000000000000000e+02,7.338086999999999804e-01
5.450000000000000000e+02,7.338086999999999804e-01
5.460000000000000000e+02,7.338086999999999804e-01
5.470000000000000000e+02,7.338086999999999804e-01
5.480000000000000000e+02,7.338086999999999804e-01
5.490000000000000000e+02,7.338086999999999804e-01
5.500000000000000000e+02,7.338086999999999804e-01
5.510000000000000000e+02,7.338086999999999804e-01
5.520000000000000000e+02,7.338086999999999804e-01
5.530000000000000000e+02,7.338086999999999804e-01
5.540000000000000000e+02,7.338086999999999804e-01
5.550000000000000000e+02,7.338086999999999804e-01
5.560000000000000000e+02,7.338086999999999804e-01
5.570000000000000000e+02,7.338086999999999804e-01
5.580000000000000000e+02,7.338086999999999804e-01
5.590000000000000000e+02,7.338086999999999804e-01
5.600000000000000000e+02,7.338086999999999804e-01
5.610000000000000000e+02,7.338086999999999804e-01
5.620000000000000000e+02,7.338086999999999804e-01
5.630000000000000000e+02,7.338086999999999804e-01
5.640000000000000000e+02,7.338086999999999804e-01
5.650000000000000000e+02,7.338086999999999804e-01
5.660000000000000000e+02,7.338086999999999804e-01
5.670000000000000000e+02,7.338086999999999804e-01
5.680000000000000000e+02,7.338086999999999804e-01
5.690000000000000000e+02,7.338086999999999804e-01
5.700000000000000000e+02,7.338086999999999804e-01
5.710000000000000000e+02,7.338086999999999804e-01
5.720000000000000000e+02,7.338086999999999804e-01
5.730000000000000000e+02,7.338086999999999804e-01
5.740000000000000000e+02,7.338086999999999804e-01
5.750000000000000000e+02,7.338086999999999804e-01
5.760000000000000000e+02,7.338086999999999804e-01
5.770000000000000000e+02,7.338086999999999804e-01
5.780000000000000000e+02,7.338086999999999804e-01
5.790000000000000000e+02,7.338086999999999804e-01
5.800000000000000000e+02,7.338086999999999804e-01
5.810000000000000000e+02,7.338086999999999804e-01
5.820000000000000000e+02,7.338086999999999804e-01
5.830000000000000000e+02,7.338086999999999804e-01
5.840000000000000000e+02,7.338086999999999804e-01
5.850000000000000000e+02,7.338086999999999804e-01
5.860000000000000000e+02,7.338086999999999804e-01
5.870000000000000000e+02,7.338086999999999804e-01
5.880000000000000000e+02,7.338086999999999804e-01
5.890000000000000000e+02,7.338086999999999804e-01
5.900000000000000000e+02,7.338086999999999804e-01
5.910000000000000000e+02,7.338086999999999804e-01
5.920000000000000000e+02,7.338086999999999804e-01
5.930000000000000000e+02,7.338086999999999804e-01
5.940000000000000000e+02,7.338086999999999804e-01
5.950000000000000000e+02,7.338086999999999804e-01
5.960000000000000000e+02,7.338086999999999804e-01
5.970000000000000000e+02,7.338086999999999804e-01
5.980000000000000000e+02,7.338086999999999804e-01
5.990000000000000000e+02,7.338086999999999804e-01