# Time [s], Temperature [C]
1.000000000000000000e+00,2.500000000000000000e+01
2.000000000000000000e+00,2.500000000000000000e+01
3.000000000000000000e+00,2.500000000000000000e+01
4.000000000000000000e+00,2.500000000000000000e+01
5.000000000000000000e+00,2.500000199999999850e+01
6.000000000000000000e+00,2.500000599999999906e+01
7.000000000000000000e+00,2.500002299999999877e+01
8.000000000000000000e+00,2.500008000000000052e+01
9.000000000000000000e+00,2.500023699999999849e+01
1.000000000000000000e+01,2.500060699999999869e+01
1.100000000000000000e+01,2.500138099999999852e+01
1.200000000000000000e+01,2.500284800000000018e+01
1.300000000000000000e+01,2.500540000000000163e+01
1.400000000000000000e+01,2.500952699999999851e+01
1.500000000000000000e+01,2.501580600000000132e+01
1.600000000000000000e+01,2.502487199999999845e+01
1.700000000000000000e+01,2.503740900000000025e+01
1.800000000000000000e+01,2.505411300000000097e+01
1.900000000000000000e+01,2.507567399999999935e+01
2.000000000000000000e+01,2.510276199999999847e+01
2.100000000000000000e+01,2.513601500000000044e+01
2.200000000000000000e+01,2.517601399999999856e+01
2.300000000000000000e+01,2.522329900000000080e+01
2.400000000000000000e+01,2.527834299999999956e+01
2.500000000000000000e+01,2.534156400000000176e+01
2.600000000000000000e+01,2.541332600000000141e+01
2.700000000000000000e+01,2.549392299999999878e+01
2.800000000000000000e+01,2.558360700000000065e+01
2.900000000000000000e+01,2.568256999999999834e+01
3.000000000000000000e+01,2.579095999999999833e+01
3.100000000000000000e+01,2.590888199999999841e+01
3.200000000000000000e+01,2.603639599999999987e+01
3.300000000000000000e+01,2.617352500000000148e+01
3.400000000000000000e+01,2.632026700000000119e+01
3.500000000000000000e+01,2.647658200000000051e+01
3.600000000000000000e+01,2.664241000000000170e+01
3.700000000000000000e+01,2.681766299999999958e+01
3.800000000000000000e+01,2.700223499999999888e+01
3.900000000000000000e+01,2.719601199999999963e+01
4.000000000000000000e+01,2.739884899999999845e+01
4.100000000000000000e+01,2.761060099999999906e+01
4.200000000000000000e+01,2.783110399999999984e+01
4.300000000000000000e+01,2.806018600000000163e+01
4.400000000000000000e+01,2.829768199999999823e+01
4.500000000000000000e+01,2.854339799999999983e+01
4.600000000000000000e+01,2.879715300000000155e+01
4.700000000000000000e+01,2.905876400000000004e+01
4.800000000000000000e+01,2.932801999999999865e+01
4.900000000000000000e+01,2.960474400000000017e+01
5.000000000000000000e+01,2.988874200000000059e+01
5.100000000000000000e+01,3.017980999999999980e+01
5.200000000000000000e+01,3.047775999999999996e+01
5.300000000000000000e+01,3.078239999999999910e+01
5.400000000000000000e+01,3.109354000000000084e+01
5.500000000000000000e+01,3.141098799999999969e+01
5.600000000000000000e+01,3.173456600000000094e+01
5.700000000000000000e+01,3.206408700000000067e+01
5.800000000000000000e+01,3.239936399999999850e+01
5.900000000000000000e+01,3.274021900000000329e+01
6.000000000000000000e+01,3.308648699999999820e+01
6.100000000000000000e+01,3.343798100000000062e+01
6.200000000000000000e+01,3.379454400000000192e+01
6.300000000000000000e+01,3.415601300000000151e+01
6.400000000000000000e+01,3.452222400000000135e+01
6.500000000000000000e+01,3.489302399999999693e+01
6.600000000000000000e+01,3.526825300000000141e+01
6.700000000000000000e+01,3.564776200000000017e+01
6.800000000000000000e+01,3.603140299999999741e+01
6.900000000000000000e+01,3.641903700000000299e+01
7.000000000000000000e+01,3.681052400000000091e+01
7.100000000000000000e+01,3.720573000000000263e+01
7.200000000000000000e+01,3.760452300000000037e+01
7.300000000000000000e+01,3.800676700000000352e+01
7.400000000000000000e+01,3.841235000000000355e+01
7.500000000000000000e+01,3.882113999999999976e+01
7.600000000000000000e+01,3.923302799999999735e+01
7.700000000000000000e+01,3.964788800000000180e+01
7.800000000000000000e+01,4.006561700000000315e+01
7.900000000000000000e+01,4.048609499999999883e+01
8.000000000000000000e+01,4.090922499999999928e+01
8.100000000000000000e+01,4.133490799999999865e+01
8.200000000000000000e+01,4.176303500000000213e+01
8.300000000000000000e+01,4.219350800000000135e+01
8.400000000000000000e+01,4.262624000000000279e+01
8.500000000000000000e+01,4.306114199999999670e+01
8.600000000000000000e+01,4.349811900000000264e+01
8.700000000000000000e+01,4.393708800000000281e+01
8.800000000000000000e+01,4.437796000000000163e+01
8.900000000000000000e+01,4.482065599999999961e+01
9.000000000000000000e+01,4.526509500000000230e+01
9.100000000000000000e+01,4.571120499999999964e+01
9.200000000000000000e+01,4.615890100000000018e+01
9.300000000000000000e+01,4.660811999999999955e+01
9.400000000000000000e+01,4.705880700000000161e+01
9.500000000000000000e+01,4.751087600000000322e+01
9.600000000000000000e+01,4.796426000000000300e+01
9.700000000000000000e+01,4.841889599999999660e+01
9.800000000000000000e+01,4.887472199999999845e+01
9.900000000000000000e+01,4.933167999999999864e+01
1.000000000000000000e+02,4.978971099999999694e+01
1.010000000000000000e+02,5.024876799999999832e+01
1.020000000000000000e+02,5.070880499999999813e+01
1.030000000000000000e+02,5.116973500000000286e+01
1.040000000000000000e+02,5.163151899999999728e+01
1.050000000000000000e+02,5.209410900000000311e+01
1.060000000000000000e+02,5.255746100000000354e+01
1.070000000000000000e+02,5.302152600000000149e+01
1.080000000000000000e+02,5.348627900000000324e+01
1.090000000000000000e+02,5.395164499999999919e+01
1.100000000000000000e+02,5.441758300000000048e+01
1.110000000000000000e+02,5.488405600000000106e+01
1.120000000000000000e+02,5.535102799999999945e+01
1.130000000000000000e+02,5.581846199999999669e+01
1.140000000000000000e+02,5.628633899999999812e+01
1.150000000000000000e+02,5.675458900000000284e+01
1.160000000000000000e+02,5.722317900000000179e+01
1.170000000000000000e+02,5.769208100000000172e+01
1.180000000000000000e+02,5.816126599999999769e+01
1.190000000000000000e+02,5.863071099999999802e+01
1.200000000000000000e+02,5.910038399999999825e+01
1.210000000000000000e+02,5.957022899999999765e+01
1.220000000000000000e+02,6.004023000000000110e+01
1.230000000000000000e+02,6.051035699999999906e+01
1.240000000000000000e+02,6.098059099999999688e+01
1.250000000000000000e+02,6.145090900000000289e+01
1.260000000000000000e+02,6.192128399999999999e+01
1.270000000000000000e+02,6.239166300000000120e+01
1.280000000000000000e+02,6.286204099999999784e+01
1.290000000000000000e+02,6.333238999999999663e+01
1.300000000000000000e+02,6.380270000000000152e+01
1.310000000000000000e+02,6.427295700000000522e+01
1.320000000000000000e+02,6.474311099999999897e+01
1.330000000000000000e+02,6.521314999999999884e+01
1.340000000000000000e+02,6.568305200000000355e+01
1.350000000000000000e+02,6.615280199999999411e+01
1.360000000000000000e+02,6.662239099999999326e+01
1.370000000000000000e+02,6.709180499999999370e+01
1.380000000000000000e+02,6.756099700000000041e+01
1.390000000000000000e+02,6.802996100000000013e+01
1.400000000000000000e+02,6.849867999999999313e+01
1.410000000000000000e+02,6.896714000000000055e+01
1.420000000000000000e+02,6.943534099999999398e+01
1.430000000000000000e+02,6.990327499999999361e+01
1.440000000000000000e+02,7.037087999999999965e+01
1.450000000000000000e+02,7.083817299999999761e+01
1.460000000000000000e+02,7.130513000000000545e+01
1.470000000000000000e+02,7.177174399999999821e+01
1.480000000000000000e+02,7.223801400000000683e+01
1.490000000000000000e+02,7.270392599999999561e+01
1.500000000000000000e+02,7.316944900000000018e+01
1.510000000000000000e+02,7.363456700000000410e+01
1.520000000000000000e+02,7.409928100000000484e+01
1.530000000000000000e+02,7.456358299999999417e+01
1.540000000000000000e+02,7.502746600000000399e+01
1.550000000000000000e+02,7.549093600000000492e+01
1.560000000000000000e+02,7.595394100000000037e+01
1.570000000000000000e+02,7.641648899999999855e+01
1.580000000000000000e+02,7.687857099999999377e+01
1.590000000000000000e+02,7.734017199999999548e+01
1.600000000000000000e+02,7.780129200000000367e+01
1.610000000000000000e+02,7.826193999999999562e+01
1.620000000000000000e+02,7.872209200000000351e+01
1.630000000000000000e+02,7.918173199999999667e+01
1.640000000000000000e+02,7.964084599999999625e+01
1.650000000000000000e+02,8.009944900000000700e+01
1.660000000000000000e+02,8.055750999999999351e+01
1.670000000000000000e+02,8.101503800000000410e+01
1.680000000000000000e+02,8.147204600000000596e+01
1.690000000000000000e+02,8.192849699999999302e+01
1.700000000000000000e+02,8.238439200000000540e+01
1.710000000000000000e+02,8.283972900000000550e+01
1.720000000000000000e+02,8.329448700000000372e+01
1.730000000000000000e+02,8.374867999999999313e+01
1.740000000000000000e+02,8.420229299999999739e+01
1.750000000000000000e+02,8.465533399999999631e+01
1.760000000000000000e+02,8.510778799999999933e+01
1.770000000000000000e+02,8.555964699999999823e+01
1.780000000000000000e+02,8.601090999999999553e+01
1.790000000000000000e+02,8.646157100000000639e+01
1.800000000000000000e+02,8.691161300000000267e+01
1.810000000000000000e+02,8.736105299999999829e+01
1.820000000000000000e+02,8.780987500000000523e+01
1.830000000000000000e+02,8.825808700000000329e+01
1.840000000000000000e+02,8.870567300000000444e+01
1.850000000000000000e+02,8.915264100000000269e+01
1.860000000000000000e+02,8.959897599999999329e+01
1.870000000000000000e+02,9.004467800000000466e+01
1.880000000000000000e+02,9.048973800000000267e+01
1.890000000000000000e+02,9.093416600000000471e+01
1.900000000000000000e+02,9.137794499999999687e+01
1.910000000000000000e+02,9.182107499999999334e+01
1.920000000000000000e+02,9.226357299999999384e+01
1.930000000000000000e+02,9.270540599999999642e+01
1.940000000000000000e+02,9.314659899999999482e+01
1.950000000000000000e+02,9.358712800000000698e+01
1.960000000000000000e+02,9.402699300000000449e+01
1.970000000000000000e+02,9.446620900000000631e+01
1.980000000000000000e+02,9.490475499999999442e+01
1.990000000000000000e+02,9.534263599999999883e+01
2.000000000000000000e+02,9.577984600000000626e+01
2.010000000000000000e+02,9.621639299999999650e+01
2.020000000000000000e+02,9.665227500000000305e+01
2.030000000000000000e+02,9.708747900000000186e+01
2.040000000000000000e+02,9.752201100000000622e+01
2.050000000000000000e+02,9.795586400000000538e+01
2.060000000000000000e+02,9.838903799999999933e+01
2.070000000000000000e+02,9.882153300000000229e+01
2.080000000000000000e+02,9.925334900000000005e+01
2.090000000000000000e+02,9.968447899999999606e+01
2.100000000000000000e+02,1.001149300000000011e+02
2.110000000000000000e+02,1.005446900000000028e+02
2.120000000000000000e+02,1.009737700000000018e+02
2.130000000000000000e+02,1.014021599999999950e+02
2.140000000000000000e+02,1.018298599999999965e+02
2.150000000000000000e+02,1.022568799999999953e+02
2.160000000000000000e+02,1.026831999999999994e+02
2.170000000000000000e+02,1.031088400000000007e+02
2.180000000000000000e+02,1.035337799999999930e+02
2.190000000000000000e+02,1.039580299999999937e+02
2.200000000000000000e+02,1.043815799999999996e+02
2.210000000000000000e+02,1.048044399999999996e+02
2.220000000000000000e+02,1.052266000000000048e+02
2.230000000000000000e+02,1.056480600000000010e+02
2.240000000000000000e+02,1.060688300000000055e+02
2.250000000000000000e+02,1.064889100000000042e+02
2.260000000000000000e+02,1.069082700000000017e+02
2.270000000000000000e+02,1.073269499999999965e+02
2.280000000000000000e+02,1.077449299999999965e+02
2.290000000000000000e+02,1.081621999999999986e+02
2.300000000000000000e+02,1.085787799999999947e+02
2.310000000000000000e+02,1.089946699999999993e+02
2.320000000000000000e+02,1.094098400000000026e+02
2.330000000000000000e+02,1.098243300000000033e+02
2.340000000000000000e+02,1.102381000000000029e+02
2.350000000000000000e+02,1.106511799999999965e+02
2.360000000000000000e+02,1.110635500000000064e+02
2.370000000000000000e+02,1.114752199999999931e+02
2.380000000000000000e+02,1.118861799999999960e+02
2.390000000000000000e+02,1.122964599999999962e+02
2.400000000000000000e+02,1.127060199999999952e+02
2.410000000000000000e+02,1.131148799999999994e+02
2.420000000000000000e+02,1.135230399999999946e+02
2.430000000000000000e+02,1.139304999999999950e+02
2.440000000000000000e+02,1.143372600000000006e+02
2.450000000000000000e+02,1.147433199999999971e+02
2.460000000000000000e+02,1.151486699999999956e+02
2.470000000000000000e+02,1.155533199999999994e+02
2.480000000000000000e+02,1.159572699999999941e+02
2.490000000000000000e+02,1.163605100000000050e+02
2.500000000000000000e+02,1.167630500000000069e+02
2.510000000000000000e+02,1.171648899999999998e+02
2.520000000000000000e+02,1.175660199999999946e+02
2.530000000000000000e+02,1.179664499999999947e+02
2.540000000000000000e+02,1.183661900000000031e+02
2.550000000000000000e+02,1.187652099999999962e+02
2.560000000000000000e+02,1.191635399999999976e+02
2.570000000000000000e+02,1.195611700000000042e+02
2.580000000000000000e+02,1.199581000000000017e+02
2.590000000000000000e+02,1.203543200000000013e+02
2.600000000000000000e+02,1.207498499999999950e+02
2.610000000000000000e+02,1.211446700000000050e+02
2.620000000000000000e+02,1.215387999999999948e+02
2.630000000000000000e+02,1.219322200000000009e+02
2.640000000000000000e+02,1.223249500000000012e+02
2.650000000000000000e+02,1.227169800000000066e+02
2.660000000000000000e+02,1.231083100000000030e+02
2.670000000000000000e+02,1.234989499999999936e+02
2.680000000000000000e+02,1.238888800000000003e+02
2.690000000000000000e+02,1.242781200000000013e+02
2.700000000000000000e+02,1.246666599999999931e+02
2.710000000000000000e+02,1.250545000000000044e+02
2.720000000000000000e+02,1.254416400000000067e+02
2.730000000000000000e+02,1.258280900000000031e+02
2.740000000000000000e+02,1.262138499999999937e+02
2.750000000000000000e+02,1.265989100000000036e+02
2.760000000000000000e+02,1.269832799999999935e+02
2.770000000000000000e+02,1.273669600000000059e+02
2.780000000000000000e+02,1.277499399999999952e+02
2.790000000000000000e+02,1.281322199999999896e+02
2.800000000000000000e+02,1.285138200000000097e+02
2.810000000000000000e+02,1.288947100000000034e+02
2.820000000000000000e+02,1.292749300000000119e+02
2.830000000000000000e+02,1.296544499999999971e+02
2.840000000000000000e+02,1.300332799999999907e+02
2.850000000000000000e+02,1.304114199999999926e+02
2.860000000000000000e+02,1.307888599999999997e+02
2.870000000000000000e+02,1.311656199999999899e+02
2.880000000000000000e+02,1.315416700000000105e+02
2.890000000000000000e+02,1.319170499999999890e+02
2.900000000000000000e+02,1.322917500000000075e+02
2.910000000000000000e+02,1.326657600000000059e+02
2.920000000000000000e+02,1.330390600000000063e+02
2.930000000000000000e+02,1.334116999999999962e+02
2.940000000000000000e+02,1.337836499999999944e+02
2.950000000000000000e+02,1.341549100000000010e+02
2.960000000000000000e+02,1.345254799999999875e+02
2.970000000000000000e+02,1.348953899999999919e+02
2.980000000000000000e+02,1.352646000000000015e+02
2.990000000000000000e+02,1.356331299999999942e+02
3.000000000000000000e+02,1.360009799999999984e+02
3.010000000000000000e+02,1.363681300000000078e+02
3.020000000000000000e+02,1.367346200000000067e+02
3.030000000000000000e+02,1.371004200000000139e+02
3.040000000000000000e+02,1.374655500000000075e+02
3.050000000000000000e+02,1.378299900000000093e+02
3.060000000000000000e+02,1.381937599999999975e+02
3.070000000000000000e+02,1.385568499999999972e+02
3.080000000000000000e+02,1.389192700000000116e+02
3.090000000000000000e+02,1.392809900000000027e+02
3.100000000000000000e+02,1.396420599999999865e+02
3.110000000000000000e+02,1.400024400000000071e+02
3.120000000000000000e+02,1.403621500000000140e+02
3.130000000000000000e+02,1.407211900000000071e+02
3.140000000000000000e+02,1.410795599999999865e+02
3.150000000000000000e+02,1.414372400000000027e+02
3.160000000000000000e+02,1.417942700000000116e+02
3.170000000000000000e+02,1.421506200000000035e+02
3.180000000000000000e+02,1.425062900000000070e+02
3.190000000000000000e+02,1.428613000000000000e+02
3.200000000000000000e+02,1.432156400000000076e+02
3.210000000000000000e+02,1.435693100000000015e+02
3.220000000000000000e+02,1.439223200000000134e+02
3.230000000000000000e+02,1.442746600000000115e+02
3.240000000000000000e+02,1.446263099999999895e+02
3.250000000000000000e+02,1.449773099999999886e+02
3.260000000000000000e+02,1.453276500000000055e+02
3.270000000000000000e+02,1.456773200000000088e+02
3.280000000000000000e+02,1.460263400000000047e+02
3.290000000000000000e+02,1.463746899999999869e+02
3.300000000000000000e+02,1.467223799999999869e+02
3.310000000000000000e+02,1.470694000000000017e+02
3.320000000000000000e+02,1.474157600000000059e+02
3.330000000000000000e+02,1.477614399999999932e+02
3.340000000000000000e+02,1.481064900000000080e+02
3.350000000000000000e+02,1.484508800000000122e+02
3.360000000000000000e+02,1.487946200000000090e+02
3.370000000000000000e+02,1.491376799999999889e+02
3.380000000000000000e+02,1.494800899999999899e+02
3.390000000000000000e+02,1.498218400000000088e+02
3.400000000000000000e+02,1.501629299999999887e+02
3.410000000000000000e+02,1.505033899999999960e+02
3.420000000000000000e+02,1.508431899999999928e+02
3.430000000000000000e+02,1.511823300000000074e+02
3.440000000000000000e+02,1.515208100000000115e+02
3.450000000000000000e+02,1.518586400000000083e+02
3.460000000000000000e+02,1.521958300000000008e+02
3.470000000000000000e+02,1.525323600000000113e+02
3.480000000000000000e+02,1.528682599999999923e+02
3.490000000000000000e+02,1.532034899999999880e+02
3.500000000000000000e+02,1.535380900000000111e+02
3.510000000000000000e+02,1.538720199999999920e+02
3.520000000000000000e+02,1.542053099999999972e+02
3.530000000000000000e+02,1.545379599999999982e+02
3.540000000000000000e+02,1.548699799999999982e+02
3.550000000000000000e+02,1.552013399999999876e+02
3.560000000000000000e+02,1.555320600000000013e+02
3.570000000000000000e+02,1.558621400000000108e+02
3.580000000000000000e+02,1.561915600000000097e+02
3.590000000000000000e+02,1.565203600000000108e+02
3.600000000000000000e+02,1.568485100000000045e+02
3.610000000000000000e+02,1.571760299999999972e+02
3.620000000000000000e+02,1.575029000000000110e+02
3.630000000000000000e+02,1.578291299999999922e+02
3.640000000000000000e+02,1.581547199999999975e+02
3.650000000000000000e+02,1.584796900000000051e+02
3.660000000000000000e+02,1.588040200000000084e+02
3.670000000000000000e+02,1.591277200000000107e+02
3.680000000000000000e+02,1.594507800000000088e+02
3.690000000000000000e+02,1.597731899999999996e+02
3.700000000000000000e+02,1.600949899999999957e+02
3.710000000000000000e+02,1.604161499999999876e+02
3.720000000000000000e+02,1.607366800000000069e+02
3.730000000000000000e+02,1.610565799999999967e+02
3.740000000000000000e+02,1.613758400000000108e+02
3.750000000000000000e+02,1.616944900000000018e+02
3.760000000000000000e+02,1.620124999999999886e+02
3.770000000000000000e+02,1.623298800000000028e+02
3.780000000000000000e+02,1.626466399999999908e+02
3.790000000000000000e+02,1.629627700000000061e+02
3.800000000000000000e+02,1.632782699999999920e+02
3.810000000000000000e+02,1.635931500000000085e+02
3.820000000000000000e+02,1.639074200000000019e+02
3.830000000000000000e+02,1.642210499999999911e+02
3.840000000000000000e+02,1.645340700000000140e+02
3.850000000000000000e+02,1.648464700000000107e+02
3.860000000000000000e+02,1.651582500000000095e+02
3.870000000000000000e+02,1.654694100000000105e+02
3.880000000000000000e+02,1.657799400000000105e+02
3.890000000000000000e+02,1.660898599999999874e+02
3.900000000000000000e+02,1.663991499999999917e+02
3.910000000000000000e+02,1.667078600000000108e+02
3.920000000000000000e+02,1.670159099999999910e+02
3.930000000000000000e+02,1.673233799999999860e+02
3.940000000000000000e+02,1.676302200000000084e+02
3.950000000000000000e+02,1.679364500000000078e+02
3.960000000000000000e+02,1.682420700000000124e+02
3.970000000000000000e+02,1.685470699999999908e+02
3.980000000000000000e+02,1.688514700000000062e+02
3.990000000000000000e+02,1.691552599999999984e+02
4.000000000000000000e+02,1.694584399999999960e+02
4.010000000000000000e+02,1.697609899999999925e+02
4.020000000000000000e+02,1.700629600000000039e+02
4.030000000000000000e+02,1.703642999999999859e+02
4.040000000000000000e+02,1.706650500000000079e+02
4.050000000000000000e+02,1.709651900000000069e+02
4.060000000000000000e+02,1.712647200000000112e+02
4.070000000000000000e+02,1.715636599999999987e+02
4.080000000000000000e+02,1.718619999999999948e+02
4.090000000000000000e+02,1.721597299999999962e+02
4.100000000000000000e+02,1.724568500000000029e+02
4.110000000000000000e+02,1.727533899999999960e+02
4.120000000000000000e+02,1.730493199999999945e+02
4.130000000000000000e+02,1.733446399999999983e+02
4.140000000000000000e+02,1.736393700000000138e+02
4.150000000000000000e+02,1.739335000000000093e+02
4.160000000000000000e+02,1.742270399999999881e+02
4.170000000000000000e+02,1.745199900000000071e+02
4.180000000000000000e+02,1.748123300000000029e+02
4.190000000000000000e+02,1.751040999999999883e+02
4.200000000000000000e+02,1.753952500000000043e+02
4.210000000000000000e+02,1.756858200000000068e+02
4.220000000000000000e+02,1.759757999999999925e+02
4.230000000000000000e+02,1.762651799999999866e+02
4.240000000000000000e+02,1.765539899999999989e+02
4.250000000000000000e+02,1.768421899999999880e+02
4.260000000000000000e+02,1.771298099999999920e+02
4.270000000000000000e+02,1.774168400000000076e+02
4.280000000000000000e+02,1.777032800000000066e+02
4.290000000000000000e+02,1.779891399999999919e+02
4.300000000000000000e+02,1.782744099999999889e+02
4.310000000000000000e+02,1.785591100000000040e+02
4.320000000000000000e+02,1.788432200000000023e+02
4.330000000000000000e+02,1.791267400000000123e+02
4.340000000000000000e+02,1.794096800000000087e+02
4.350000000000000000e+02,1.796920299999999884e+02
4.360000000000000000e+02,1.799738199999999892e+02
4.370000000000000000e+02,1.802550200000000018e+02
4.380000000000000000e+02,1.805356400000000008e+02
4.390000000000000000e+02,1.808156899999999894e+02
4.400000000000000000e+02,1.810951499999999896e+02
4.410000000000000000e+02,1.813740500000000111e+02
4.420000000000000000e+02,1.816523699999999906e+02
4.430000000000000000e+02,1.819301100000000133e+02
4.440000000000000000e+02,1.822072799999999972e+02
4.450000000000000000e+02,1.824838699999999960e+02
4.460000000000000000e+02,1.827598900000000128e+02
4.470000000000000000e+02,1.830353399999999908e+02
4.480000000000000000e+02,1.833102299999999900e+02
4.490000000000000000e+02,1.835845300000000009e+02
4.500000000000000000e+02,1.838582900000000109e+02
4.510000000000000000e+02,1.841314500000000010e+02
4.520000000000000000e+02,1.844040699999999902e+02
4.530000000000000000e+02,1.846761199999999974e+02
4.540000000000000000e+02,1.849475899999999911e+02
4.550000000000000000e+02,1.852185100000000091e+02
4.560000000000000000e+02,1.854888500000000136e+02
4.570000000000000000e+02,1.857586400000000140e+02
4.580000000000000000e+02,1.860278500000000008e+02
4.590000000000000000e+02,1.862965199999999868e+02
4.600000000000000000e+02,1.865646199999999908e+02
4.610000000000000000e+02,1.868321500000000128e+02
4.620000000000000000e+02,1.870991400000000056e+02
4.630000000000000000e+02,1.873655500000000131e+02
4.640000000000000000e+02,1.876314199999999914e+02
4.650000000000000000e+02,1.878967299999999909e+02
4.660000000000000000e+02,1.881614800000000116e+02
4.670000000000000000e+02,1.884256699999999967e+02
4.680000000000000000e+02,1.886893300000000124e+02
4.690000000000000000e+02,1.889524099999999862e+02
4.700000000000000000e+02,1.892149499999999875e+02
4.710000000000000000e+02,1.894769400000000132e+02
4.720000000000000000e+02,1.897383700000000033e+02
4.730000000000000000e+02,1.899992499999999893e+02
4.740000000000000000e+02,1.902596000000000060e+02
4.750000000000000000e+02,1.905193800000000124e+02
4.760000000000000000e+02,1.907786099999999863e+02
4.770000000000000000e+02,1.910373099999999909e+02
4.780000000000000000e+02,1.912954599999999914e+02
4.790000000000000000e+02,1.915530500000000131e+02
4.800000000000000000e+02,1.918101000000000056e+02
4.810000000000000000e+02,1.920666200000000003e+02
4.820000000000000000e+02,1.923225899999999911e+02
4.830000000000000000e+02,1.925780200000000093e+02
4.840000000000000000e+02,1.928328999999999951e+02
4.850000000000000000e+02,1.930872500000000116e+02
4.860000000000000000e+02,1.933410499999999956e+02
4.870000000000000000e+02,1.935943100000000072e+02
4.880000000000000000e+02,1.938470599999999990e+02
4.890000000000000000e+02,1.940992400000000089e+02
4.900000000000000000e+02,1.943509099999999989e+02
4.910000000000000000e+02,1.946020200000000102e+02
4.920000000000000000e+02,1.948526200000000017e+02
4.930000000000000000e+02,1.951026599999999860e+02
4.940000000000000000e+02,1.953521700000000010e+02
4.950000000000000000e+02,1.956011699999999962e+02
4.960000000000000000e+02,1.958496199999999874e+02
4.970000000000000000e+02,1.960975500000000125e+02
4.980000000000000000e+02,1.963449400000000082e+02
4.990000000000000000e+02,1.965918000000000063e+02
5.000000000000000000e+02,1.968381300000000067e+02
5.010000000000000000e+02,1.970839499999999873e+02
5.020000000000000000e+02,1.973292199999999923e+02
5.030000000000000000e+02,1.975739900000000091e+02
5.040000000000000000e+02,1.978182199999999966e+02
5.050000000000000000e+02,1.980619199999999864e+02
5.060000000000000000e+02,1.983051100000000133e+02
5.070000000000000000e+02,1.985477600000000109e+02
5.080000000000000000e+02,1.987898999999999887e+02
5.090000000000000000e+02,1.990315200000000004e+02
5.100000000000000000e+02,1.992726299999999924e+02
5.110000000000000000e+02,1.995132099999999866e+02
5.120000000000000000e+02,1.997532699999999863e+02
5.130000000000000000e+02,1.999928099999999915e+02
5.140000000000000000e+02,2.002318300000000022e+02
5.150000000000000000e+02,2.004703399999999931e+02
5.160000000000000000e+02,2.007083399999999926e+02
5.170000000000000000e+02,2.009458199999999977e+02
5.180000000000000000e+02,2.011827900000000113e+02
5.190000000000000000e+02,2.014192400000000021e+02
5.200000000000000000e+02,2.016551699999999983e+02
5.210000000000000000e+02,2.018906100000000094e+02
5.220000000000000000e+02,2.021255299999999977e+02
5.230000000000000000e+02,2.023599399999999946e+02
5.240000000000000000e+02,2.025938400000000001e+02
5.250000000000000000e+02,2.028272200000000112e+02
5.260000000000000000e+02,2.030601200000000119e+02
5.270000000000000000e+02,2.032924999999999898e+02
5.280000000000000000e+02,2.035243700000000047e+02
5.290000000000000000e+02,2.037557400000000030e+02
5.300000000000000000e+02,2.039866000000000099e+02
5.310000000000000000e+02,2.042169600000000003e+02
5.320000000000000000e+02,2.044468200000000024e+02
5.330000000000000000e+02,2.046761799999999880e+02
5.340000000000000000e+02,2.049050400000000138e+02
5.350000000000000000e+02,2.051333899999999915e+02
5.360000000000000000e+02,2.053612500000000125e+02
5.370000000000000000e+02,2.055886099999999885e+02
5.380000000000000000e+02,2.058154800000000080e+02
5.390000000000000000e+02,2.060418400000000076e+02
5.400000000000000000e+02,2.062676999999999907e+02
5.410000000000000000e+02,2.064930699999999888e+02
5.420000000000000000e+02,2.067179600000000050e+02
5.430000000000000000e+02,2.069423500000000047e+02
5.440000000000000000e+02,2.071662399999999877e+02
5.450000000000000000e+02,2.073896300000000110e+02
5.460000000000000000e+02,2.076125499999999988e+02
5.470000000000000000e+02,2.078349800000000016e+02
5.480000000000000000e+02,2.080569000000000131e+02
5.490000000000000000e+02,2.082783399999999858e+02
5.500000000000000000e+02,2.084993000000000052e+02
5.510000000000000000e+02,2.087197600000000079e+02
5.520000000000000000e+02,2.089397400000000005e+02
5.530000000000000000e+02,2.091592400000000112e+02
5.540000000000000000e+02,2.093782300000000021e+02
5.550000000000000000e+02,2.095967699999999923e+02
5.560000000000000000e+02,2.098147999999999911e+02
5.570000000000000000e+02,2.100323600000000113e+02
5.580000000000000000e+02,2.102494499999999960e+02
5.590000000000000000e+02,2.104660499999999956e+02
5.600000000000000000e+02,2.106821700000000135e+02
5.610000000000000000e+02,2.108978099999999927e+02
5.620000000000000000e+02,2.111129599999999868e+02
5.630000000000000000e+02,2.113276500000000055e+02
5.640000000000000000e+02,2.115418500000000108e+02
5.650000000000000000e+02,2.117555800000000090e+02
5.660000000000000000e+02,2.119688400000000001e+02
5.670000000000000000e+02,2.121816300000000126e+02
5.680000000000000000e+02,2.123939399999999864e+02
5.690000000000000000e+02,2.126057700000000068e+02
5.700000000000000000e+02,2.128171399999999949e+02
5.710000000000000000e+02,2.130280300000000011e+02
5.720000000000000000e+02,2.132384500000000003e+02
5.730000000000000000e+02,2.134484099999999955e+02
5.740000000000000000e+02,2.136579000000000121e+02
5.750000000000000000e+02,2.138669099999999901e+02
5.760000000000000000e+02,2.140754499999999894e+02
5.770000000000000000e+02,2.142835499999999911e+02
5.780000000000000000e+02,2.144911700000000110e+02
5.790000000000000000e+02,2.146983199999999954e+02
5.800000000000000000e+02,2.149050100000000043e+02
5.810000000000000000e+02,2.151112400000000093e+02
5.820000000000000000e+02,2.153170000000000073e+02
5.830000000000000000e+02,2.155223100000000045e+02
5.840000000000000000e+02,2.157271599999999978e+02
5.850000000000000000e+02,2.159315300000000093e+02
5.860000000000000000e+02,2.161354699999999980e+02
5.870000000000000000e+02,2.163389300000000048e+02
5.880000000000000000e+02,2.165419300000000078e+02
5.890000000000000000e+02,2.167444900000000132e+02
5.900000000000000000e+02,2.169465800000000115e+02
5.910000000000000000e+02,2.171482200000000091e+02
5.920000000000000000e+02,2.173494100000000060e+02
5.930000000000000000e+02,2.175501600000000053e+02
5.940000000000000000e+02,2.177504299999999944e+02
5.950000000000000000e+02,2.179502599999999859e+02
5.960000000000000000e+02,2.181496400000000051e+02
5.970000000000000000e+02,2.183485699999999952e+02
5.980000000000000000e+02,2.185470599999999877e+02
5.990000000000000000e+02,2.187450900000000047e+02