Loop,Time,r0-A,p0-C0,p1-C0,p0-Cpa,p1-Cpa,p0-Cpb,p1-Cpb,r0-E,r0-Hp,p0-K,p1-K,Value,r0-Xi,p0-eps,p1-eps,p0-ka,p1-ka,p0-kb,p1-kb,r0-n,r0-nO2,p0-rho,p1-rho,
-1,0,4.40e+12,1.0,0.0,1077.817746027638,1009.583324861379,0.05205436635548984,0.2828590458429268,1.84e+05,99562.87306714283,12010.324184917155,100000000.0,0.007205210000219977,0.7338086749851456,0.9413345875244687,0.94,0.31669855221272153,0.1440446091040905,3.1934037914023466e-05,0.00020180138431297564,1.0137845297363584,0.0,1683.0,1235.0,
