# Time [s], Temperature [C]
1.000000000000000000e+00,2.500000000000000000e+01
2.000000000000000000e+00,2.500000000000000000e+01
3.000000000000000000e+00,2.500000000000000000e+01
4.000000000000000000e+00,2.500000000000000000e+01
5.000000000000000000e+00,2.500000000000000000e+01
6.000000000000000000e+00,2.500000400000000056e+01
7.000000000000000000e+00,2.500001900000000177e+01
8.000000000000000000e+00,2.500006899999999987e+01
9.000000000000000000e+00,2.500020400000000009e+01
1.000000000000000000e+01,2.500052799999999920e+01
1.100000000000000000e+01,2.500121499999999841e+01
1.200000000000000000e+01,2.500252700000000061e+01
1.300000000000000000e+01,2.500482699999999880e+01
1.400000000000000000e+01,2.500857699999999895e+01
1.500000000000000000e+01,2.501432000000000144e+01
1.600000000000000000e+01,2.502267099999999900e+01
1.700000000000000000e+01,2.503427900000000150e+01
1.800000000000000000e+01,2.504982599999999948e+01
1.900000000000000000e+01,2.506998799999999861e+01
2.000000000000000000e+01,2.509542700000000082e+01
2.100000000000000000e+01,2.512676799999999844e+01
2.200000000000000000e+01,2.516460400000000064e+01
2.300000000000000000e+01,2.520946899999999857e+01
2.400000000000000000e+01,2.526184999999999903e+01
2.500000000000000000e+01,2.532217400000000040e+01
2.600000000000000000e+01,2.539080999999999833e+01
2.700000000000000000e+01,2.546807899999999947e+01
2.800000000000000000e+01,2.555423400000000100e+01
2.900000000000000000e+01,2.564948700000000059e+01
3.000000000000000000e+01,2.575400499999999937e+01
3.100000000000000000e+01,2.586790699999999887e+01
3.200000000000000000e+01,2.599126199999999898e+01
3.300000000000000000e+01,2.612411699999999826e+01
3.400000000000000000e+01,2.626648700000000147e+01
3.500000000000000000e+01,2.641834300000000013e+01
3.600000000000000000e+01,2.657963200000000015e+01
3.700000000000000000e+01,2.675029599999999874e+01
3.800000000000000000e+01,2.693022900000000064e+01
3.900000000000000000e+01,2.711933099999999897e+01
4.000000000000000000e+01,2.731746499999999855e+01
4.100000000000000000e+01,2.752450199999999825e+01
4.200000000000000000e+01,2.774027799999999999e+01
4.300000000000000000e+01,2.796464900000000142e+01
4.400000000000000000e+01,2.819743300000000019e+01
4.500000000000000000e+01,2.843846900000000133e+01
4.600000000000000000e+01,2.868758400000000108e+01
4.700000000000000000e+01,2.894456699999999927e+01
4.800000000000000000e+01,2.920925499999999886e+01
4.900000000000000000e+01,2.948146399999999900e+01
5.000000000000000000e+01,2.976098400000000055e+01
5.100000000000000000e+01,3.004763600000000068e+01
5.200000000000000000e+01,3.034122800000000097e+01
5.300000000000000000e+01,3.064157700000000162e+01
5.400000000000000000e+01,3.094848100000000102e+01
5.500000000000000000e+01,3.126176800000000000e+01
5.600000000000000000e+01,3.158125300000000024e+01
5.700000000000000000e+01,3.190675500000000042e+01
5.800000000000000000e+01,3.223808700000000016e+01
5.900000000000000000e+01,3.257506200000000263e+01
6.000000000000000000e+01,3.291753400000000340e+01
6.100000000000000000e+01,3.326533500000000032e+01
6.200000000000000000e+01,3.361827900000000113e+01
6.300000000000000000e+01,3.397620400000000274e+01
6.400000000000000000e+01,3.433895100000000156e+01
6.500000000000000000e+01,3.470637500000000131e+01
6.600000000000000000e+01,3.507831600000000094e+01
6.700000000000000000e+01,3.545462400000000258e+01
6.800000000000000000e+01,3.583513599999999855e+01
6.900000000000000000e+01,3.621973400000000254e+01
7.000000000000000000e+01,3.660826500000000294e+01
7.100000000000000000e+01,3.700059900000000113e+01
7.200000000000000000e+01,3.739659900000000192e+01
7.300000000000000000e+01,3.779613899999999660e+01
7.400000000000000000e+01,3.819910399999999839e+01
7.500000000000000000e+01,3.860535399999999839e+01
7.600000000000000000e+01,3.901476699999999909e+01
7.700000000000000000e+01,3.942723500000000314e+01
7.800000000000000000e+01,3.984265500000000060e+01
7.900000000000000000e+01,4.026090200000000152e+01
8.000000000000000000e+01,4.068187300000000306e+01
8.100000000000000000e+01,4.110547300000000348e+01
8.200000000000000000e+01,4.153158599999999723e+01
8.300000000000000000e+01,4.196012499999999790e+01
8.400000000000000000e+01,4.239099099999999964e+01
8.500000000000000000e+01,4.282409299999999774e+01
8.600000000000000000e+01,4.325933799999999962e+01
8.700000000000000000e+01,4.369664000000000215e+01
8.800000000000000000e+01,4.413591399999999965e+01
8.900000000000000000e+01,4.457707200000000114e+01
9.000000000000000000e+01,4.502003500000000003e+01
9.100000000000000000e+01,4.546476400000000240e+01
9.200000000000000000e+01,4.591114400000000018e+01
9.300000000000000000e+01,4.635910400000000209e+01
9.400000000000000000e+01,4.680856699999999648e+01
9.500000000000000000e+01,4.725946799999999826e+01
9.600000000000000000e+01,4.771174200000000098e+01
9.700000000000000000e+01,4.816532500000000283e+01
9.800000000000000000e+01,4.862017099999999914e+01
9.900000000000000000e+01,4.907622899999999788e+01
1.000000000000000000e+02,4.953340500000000191e+01
1.010000000000000000e+02,4.999163099999999815e+01
1.020000000000000000e+02,5.045086299999999824e+01
1.030000000000000000e+02,5.091105300000000256e+01
1.040000000000000000e+02,5.137216200000000299e+01
1.050000000000000000e+02,5.183414100000000246e+01
1.060000000000000000e+02,5.229694400000000343e+01
1.070000000000000000e+02,5.276047100000000256e+01
1.080000000000000000e+02,5.322470500000000015e+01
1.090000000000000000e+02,5.368960200000000071e+01
1.100000000000000000e+02,5.415512799999999771e+01
1.110000000000000000e+02,5.462125400000000042e+01
1.120000000000000000e+02,5.508793599999999913e+01
1.130000000000000000e+02,5.555508400000000080e+01
1.140000000000000000e+02,5.602268600000000021e+01
1.150000000000000000e+02,5.649071099999999745e+01
1.160000000000000000e+02,5.695912599999999770e+01
1.170000000000000000e+02,5.742790999999999713e+01
1.180000000000000000e+02,5.789702599999999677e+01
1.190000000000000000e+02,5.836639799999999667e+01
1.200000000000000000e+02,5.883601000000000170e+01
1.210000000000000000e+02,5.930584300000000297e+01
1.220000000000000000e+02,5.977587100000000220e+01
1.230000000000000000e+02,6.024607799999999713e+01
1.240000000000000000e+02,6.071643100000000004e+01
1.250000000000000000e+02,6.118685899999999833e+01
1.260000000000000000e+02,6.165735600000000005e+01
1.270000000000000000e+02,6.212791099999999744e+01
1.280000000000000000e+02,6.259849499999999978e+01
1.290000000000000000e+02,6.306911099999999948e+01
1.300000000000000000e+02,6.353969200000000228e+01
1.310000000000000000e+02,6.401020800000000577e+01
1.320000000000000000e+02,6.448065900000000283e+01
1.330000000000000000e+02,6.495102699999999629e+01
1.340000000000000000e+02,6.542130299999999465e+01
1.350000000000000000e+02,6.589146399999999915e+01
1.360000000000000000e+02,6.636144299999999419e+01
1.370000000000000000e+02,6.683125300000000379e+01
1.380000000000000000e+02,6.730086500000000171e+01
1.390000000000000000e+02,6.777029400000000692e+01
1.400000000000000000e+02,6.823950999999999567e+01
1.410000000000000000e+02,6.870850400000000491e+01
1.420000000000000000e+02,6.917721600000000137e+01
1.430000000000000000e+02,6.964564500000000180e+01
1.440000000000000000e+02,7.011379999999999768e+01
1.450000000000000000e+02,7.058165700000000697e+01
1.460000000000000000e+02,7.104923200000000350e+01
1.470000000000000000e+02,7.151647199999999316e+01
1.480000000000000000e+02,7.198334499999999991e+01
1.490000000000000000e+02,7.244986000000000104e+01
1.500000000000000000e+02,7.291600800000000504e+01
1.510000000000000000e+02,7.338178999999999519e+01
1.520000000000000000e+02,7.384719800000000589e+01
1.530000000000000000e+02,7.431221800000000144e+01
1.540000000000000000e+02,7.477679399999999532e+01
1.550000000000000000e+02,7.524094399999999894e+01
1.560000000000000000e+02,7.570465099999999836e+01
1.570000000000000000e+02,7.616791499999999360e+01
1.580000000000000000e+02,7.663074500000000455e+01
1.590000000000000000e+02,7.709314000000000533e+01
1.600000000000000000e+02,7.755503799999999615e+01
1.610000000000000000e+02,7.801644100000000037e+01
1.620000000000000000e+02,7.847735600000000034e+01
1.630000000000000000e+02,7.893776699999999380e+01
1.640000000000000000e+02,7.939768200000000320e+01
1.650000000000000000e+02,7.985713199999999290e+01
1.660000000000000000e+02,8.031604799999999500e+01
1.670000000000000000e+02,8.077441399999999305e+01
1.680000000000000000e+02,8.123223900000000697e+01
1.690000000000000000e+02,8.168951400000000262e+01
1.700000000000000000e+02,8.214624000000000592e+01
1.710000000000000000e+02,8.260240899999999442e+01
1.720000000000000000e+02,8.305805999999999756e+01
1.730000000000000000e+02,8.351313799999999787e+01
1.740000000000000000e+02,8.396764400000000705e+01
1.750000000000000000e+02,8.442156199999999444e+01
1.760000000000000000e+02,8.487489300000000014e+01
1.770000000000000000e+02,8.532763699999999574e+01
1.780000000000000000e+02,8.577977799999999320e+01
1.790000000000000000e+02,8.623133099999999729e+01
1.800000000000000000e+02,8.668230400000000202e+01
1.810000000000000000e+02,8.713268300000000011e+01
1.820000000000000000e+02,8.758243600000000129e+01
1.830000000000000000e+02,8.803157000000000210e+01
1.840000000000000000e+02,8.848008000000000095e+01
1.850000000000000000e+02,8.892797099999999944e+01
1.860000000000000000e+02,8.937522900000000448e+01
1.870000000000000000e+02,8.982185400000000186e+01
1.880000000000000000e+02,9.026787600000000111e+01
1.890000000000000000e+02,9.071325699999999870e+01
1.900000000000000000e+02,9.115798999999999808e+01
1.910000000000000000e+02,9.160208099999999831e+01
1.920000000000000000e+02,9.204552499999999782e+01
1.930000000000000000e+02,9.248831900000000417e+01
1.940000000000000000e+02,9.293045800000000156e+01
1.950000000000000000e+02,9.337194800000000328e+01
1.960000000000000000e+02,9.381278199999999856e+01
1.970000000000000000e+02,9.425296799999999564e+01
1.980000000000000000e+02,9.469249000000000649e+01
1.990000000000000000e+02,9.513135499999999922e+01
2.000000000000000000e+02,9.556955000000000666e+01
2.010000000000000000e+02,9.600707199999999375e+01
2.020000000000000000e+02,9.644393200000000377e+01
2.030000000000000000e+02,9.688011199999999690e+01
2.040000000000000000e+02,9.731562800000000379e+01
2.050000000000000000e+02,9.775046500000000549e+01
2.060000000000000000e+02,9.818462399999999946e+01
2.070000000000000000e+02,9.861810300000000495e+01
2.080000000000000000e+02,9.905091899999999328e+01
2.090000000000000000e+02,9.948304699999999912e+01
2.100000000000000000e+02,9.991449000000000069e+01
2.110000000000000000e+02,1.003452499999999930e+02
2.120000000000000000e+02,1.007753199999999936e+02
2.130000000000000000e+02,1.012047100000000057e+02
2.140000000000000000e+02,1.016334099999999978e+02
2.150000000000000000e+02,1.020614199999999983e+02
2.160000000000000000e+02,1.024887400000000071e+02
2.170000000000000000e+02,1.029153699999999958e+02
2.180000000000000000e+02,1.033413099999999929e+02
2.190000000000000000e+02,1.037665499999999952e+02
2.200000000000000000e+02,1.041911000000000058e+02
2.210000000000000000e+02,1.046149599999999964e+02
2.220000000000000000e+02,1.050381200000000064e+02
2.230000000000000000e+02,1.054606100000000026e+02
2.240000000000000000e+02,1.058823799999999977e+02
2.250000000000000000e+02,1.063034499999999980e+02
2.260000000000000000e+02,1.067238399999999956e+02
2.270000000000000000e+02,1.071435199999999952e+02
2.280000000000000000e+02,1.075624899999999968e+02
2.290000000000000000e+02,1.079807700000000068e+02
2.300000000000000000e+02,1.083983400000000046e+02
2.310000000000000000e+02,1.088152199999999965e+02
2.320000000000000000e+02,1.092314099999999968e+02
2.330000000000000000e+02,1.096468799999999959e+02
2.340000000000000000e+02,1.100616600000000034e+02
2.350000000000000000e+02,1.104757299999999987e+02
2.360000000000000000e+02,1.108891100000000023e+02
2.370000000000000000e+02,1.113017700000000048e+02
2.380000000000000000e+02,1.117137500000000045e+02
2.390000000000000000e+02,1.121250200000000063e+02
2.400000000000000000e+02,1.125355799999999959e+02
2.410000000000000000e+02,1.129454400000000049e+02
2.420000000000000000e+02,1.133546099999999939e+02
2.430000000000000000e+02,1.137630599999999959e+02
2.440000000000000000e+02,1.141708200000000062e+02
2.450000000000000000e+02,1.145778700000000043e+02
2.460000000000000000e+02,1.149842299999999966e+02
2.470000000000000000e+02,1.153898800000000051e+02
2.480000000000000000e+02,1.157948200000000014e+02
2.490000000000000000e+02,1.161990600000000029e+02
2.500000000000000000e+02,1.166025900000000064e+02
2.510000000000000000e+02,1.170054200000000009e+02
2.520000000000000000e+02,1.174075500000000005e+02
2.530000000000000000e+02,1.178089800000000054e+02
2.540000000000000000e+02,1.182096899999999948e+02
2.550000000000000000e+02,1.186097199999999958e+02
2.560000000000000000e+02,1.190090399999999988e+02
2.570000000000000000e+02,1.194076699999999960e+02
2.580000000000000000e+02,1.198055899999999951e+02
2.590000000000000000e+02,1.202028099999999995e+02
2.600000000000000000e+02,1.205993299999999948e+02
2.610000000000000000e+02,1.209951599999999985e+02
2.620000000000000000e+02,1.213902999999999963e+02
2.630000000000000000e+02,1.217847299999999962e+02
2.640000000000000000e+02,1.221784600000000012e+02
2.650000000000000000e+02,1.225715000000000003e+02
2.660000000000000000e+02,1.229638199999999983e+02
2.670000000000000000e+02,1.233554500000000047e+02
2.680000000000000000e+02,1.237463800000000020e+02
2.690000000000000000e+02,1.241366100000000046e+02
2.700000000000000000e+02,1.245261399999999981e+02
2.710000000000000000e+02,1.249149599999999936e+02
2.720000000000000000e+02,1.253030899999999974e+02
2.730000000000000000e+02,1.256905200000000065e+02
2.740000000000000000e+02,1.260772599999999954e+02
2.750000000000000000e+02,1.264633199999999960e+02
2.760000000000000000e+02,1.268486699999999985e+02
2.770000000000000000e+02,1.272333399999999983e+02
2.780000000000000000e+02,1.276173100000000034e+02
2.790000000000000000e+02,1.280005800000000136e+02
2.800000000000000000e+02,1.283831600000000037e+02
2.810000000000000000e+02,1.287650500000000022e+02
2.820000000000000000e+02,1.291462400000000059e+02
2.830000000000000000e+02,1.295267299999999864e+02
2.840000000000000000e+02,1.299065400000000068e+02
2.850000000000000000e+02,1.302856400000000008e+02
2.860000000000000000e+02,1.306640800000000127e+02
2.870000000000000000e+02,1.310418099999999981e+02
2.880000000000000000e+02,1.314188499999999920e+02
2.890000000000000000e+02,1.317952099999999973e+02
2.900000000000000000e+02,1.321708999999999889e+02
2.910000000000000000e+02,1.325458800000000110e+02
2.920000000000000000e+02,1.329201999999999941e+02
2.930000000000000000e+02,1.332938200000000109e+02
2.940000000000000000e+02,1.336667500000000075e+02
2.950000000000000000e+02,1.340389999999999873e+02
2.960000000000000000e+02,1.344105500000000006e+02
2.970000000000000000e+02,1.347814199999999971e+02
2.980000000000000000e+02,1.351516000000000020e+02
2.990000000000000000e+02,1.355210999999999899e+02
3.000000000000000000e+02,1.358899399999999957e+02
3.010000000000000000e+02,1.362580900000000099e+02
3.020000000000000000e+02,1.366255299999999977e+02
3.030000000000000000e+02,1.369923200000000065e+02
3.040000000000000000e+02,1.373584299999999985e+02
3.050000000000000000e+02,1.377238600000000019e+02
3.060000000000000000e+02,1.380886099999999885e+02
3.070000000000000000e+02,1.384526799999999866e+02
3.080000000000000000e+02,1.388160699999999963e+02
3.090000000000000000e+02,1.391787899999999922e+02
3.100000000000000000e+02,1.395408199999999965e+02
3.110000000000000000e+02,1.399021899999999903e+02
3.120000000000000000e+02,1.402628799999999956e+02
3.130000000000000000e+02,1.406228800000000092e+02
3.140000000000000000e+02,1.409822200000000123e+02
3.150000000000000000e+02,1.413409000000000049e+02
3.160000000000000000e+02,1.416988800000000026e+02
3.170000000000000000e+02,1.420562099999999930e+02
3.180000000000000000e+02,1.424128699999999981e+02
3.190000000000000000e+02,1.427688599999999894e+02
3.200000000000000000e+02,1.431241799999999955e+02
3.210000000000000000e+02,1.434788399999999911e+02
3.220000000000000000e+02,1.438327899999999886e+02
3.230000000000000000e+02,1.441861100000000135e+02
3.240000000000000000e+02,1.445387599999999964e+02
3.250000000000000000e+02,1.448907499999999970e+02
3.260000000000000000e+02,1.452420700000000124e+02
3.270000000000000000e+02,1.455927299999999889e+02
3.280000000000000000e+02,1.459427200000000084e+02
3.290000000000000000e+02,1.462920499999999890e+02
3.300000000000000000e+02,1.466407000000000096e+02
3.310000000000000000e+02,1.469886899999999912e+02
3.320000000000000000e+02,1.473360399999999970e+02
3.330000000000000000e+02,1.476827399999999955e+02
3.340000000000000000e+02,1.480287600000000054e+02
3.350000000000000000e+02,1.483741300000000081e+02
3.360000000000000000e+02,1.487188400000000001e+02
3.370000000000000000e+02,1.490628800000000069e+02
3.380000000000000000e+02,1.494062700000000063e+02
3.390000000000000000e+02,1.497490099999999984e+02
3.400000000000000000e+02,1.500910900000000083e+02
3.410000000000000000e+02,1.504325300000000141e+02
3.420000000000000000e+02,1.507733200000000124e+02
3.430000000000000000e+02,1.511134299999999939e+02
3.440000000000000000e+02,1.514529100000000028e+02
3.450000000000000000e+02,1.517917199999999980e+02
3.460000000000000000e+02,1.521298999999999921e+02
3.470000000000000000e+02,1.524674200000000042e+02
3.480000000000000000e+02,1.528043099999999868e+02
3.490000000000000000e+02,1.531405200000000093e+02
3.500000000000000000e+02,1.534761000000000024e+02
3.510000000000000000e+02,1.538110200000000134e+02
3.520000000000000000e+02,1.541453099999999949e+02
3.530000000000000000e+02,1.544789399999999944e+02
3.540000000000000000e+02,1.548119499999999960e+02
3.550000000000000000e+02,1.551442999999999870e+02
3.560000000000000000e+02,1.554760100000000023e+02
3.570000000000000000e+02,1.558070700000000102e+02
3.580000000000000000e+02,1.561374999999999886e+02
3.590000000000000000e+02,1.564672899999999913e+02
3.600000000000000000e+02,1.567964299999999866e+02
3.610000000000000000e+02,1.571249400000000094e+02
3.620000000000000000e+02,1.574527999999999963e+02
3.630000000000000000e+02,1.577800300000000107e+02
3.640000000000000000e+02,1.581066299999999956e+02
3.650000000000000000e+02,1.584326000000000079e+02
3.660000000000000000e+02,1.587579200000000128e+02
3.670000000000000000e+02,1.590826099999999883e+02
3.680000000000000000e+02,1.594066599999999880e+02
3.690000000000000000e+02,1.597300899999999899e+02
3.700000000000000000e+02,1.600528700000000129e+02
3.710000000000000000e+02,1.603750300000000095e+02
3.720000000000000000e+02,1.606965600000000052e+02
3.730000000000000000e+02,1.610174599999999998e+02
3.740000000000000000e+02,1.613377399999999966e+02
3.750000000000000000e+02,1.616573799999999892e+02
3.760000000000000000e+02,1.619763900000000092e+02
3.770000000000000000e+02,1.622947800000000029e+02
3.780000000000000000e+02,1.626125499999999988e+02
3.790000000000000000e+02,1.629296899999999937e+02
3.800000000000000000e+02,1.632461999999999875e+02
3.810000000000000000e+02,1.635620900000000120e+02
3.820000000000000000e+02,1.638773500000000070e+02
3.830000000000000000e+02,1.641920000000000073e+02
3.840000000000000000e+02,1.645060400000000129e+02
3.850000000000000000e+02,1.648194399999999860e+02
3.860000000000000000e+02,1.651322299999999927e+02
3.870000000000000000e+02,1.654444000000000017e+02
3.880000000000000000e+02,1.657559500000000128e+02
3.890000000000000000e+02,1.660668799999999976e+02
3.900000000000000000e+02,1.663771999999999878e+02
3.910000000000000000e+02,1.666869000000000085e+02
3.920000000000000000e+02,1.669959900000000061e+02
3.930000000000000000e+02,1.673044700000000091e+02
3.940000000000000000e+02,1.676123499999999922e+02
3.950000000000000000e+02,1.679196000000000026e+02
3.960000000000000000e+02,1.682262299999999868e+02
3.970000000000000000e+02,1.685322600000000079e+02
3.980000000000000000e+02,1.688376900000000091e+02
3.990000000000000000e+02,1.691425000000000125e+02
4.000000000000000000e+02,1.694466999999999928e+02
4.010000000000000000e+02,1.697502900000000068e+02
4.020000000000000000e+02,1.700532800000000009e+02
4.030000000000000000e+02,1.703556700000000035e+02
4.040000000000000000e+02,1.706574599999999862e+02
4.050000000000000000e+02,1.709586199999999963e+02
4.060000000000000000e+02,1.712591899999999896e+02
4.070000000000000000e+02,1.715591599999999914e+02
4.080000000000000000e+02,1.718585400000000050e+02
4.090000000000000000e+02,1.721572999999999922e+02
4.100000000000000000e+02,1.724554699999999912e+02
4.110000000000000000e+02,1.727530399999999986e+02
4.120000000000000000e+02,1.730500199999999893e+02
4.130000000000000000e+02,1.733463700000000074e+02
4.140000000000000000e+02,1.736421499999999867e+02
4.150000000000000000e+02,1.739373300000000029e+02
4.160000000000000000e+02,1.742319200000000023e+02
4.170000000000000000e+02,1.745259100000000103e+02
4.180000000000000000e+02,1.748193100000000015e+02
4.190000000000000000e+02,1.751121200000000044e+02
4.200000000000000000e+02,1.754043399999999906e+02
4.210000000000000000e+02,1.756959500000000105e+02
4.220000000000000000e+02,1.759869999999999948e+02
4.230000000000000000e+02,1.762774499999999875e+02
4.240000000000000000e+02,1.765672900000000141e+02
4.250000000000000000e+02,1.768565700000000049e+02
4.260000000000000000e+02,1.771452500000000043e+02
4.270000000000000000e+02,1.774333300000000122e+02
4.280000000000000000e+02,1.777208400000000097e+02
4.290000000000000000e+02,1.780077699999999936e+02
4.300000000000000000e+02,1.782941299999999956e+02
4.310000000000000000e+02,1.785798800000000028e+02
4.320000000000000000e+02,1.788650700000000029e+02
4.330000000000000000e+02,1.791496600000000115e+02
4.340000000000000000e+02,1.794336700000000064e+02
4.350000000000000000e+02,1.797171199999999942e+02
4.360000000000000000e+02,1.799999699999999905e+02
4.370000000000000000e+02,1.802822600000000079e+02
4.380000000000000000e+02,1.805639600000000087e+02
4.390000000000000000e+02,1.808450899999999990e+02
4.400000000000000000e+02,1.811256400000000042e+02
4.410000000000000000e+02,1.814056199999999990e+02
4.420000000000000000e+02,1.816850300000000118e+02
4.430000000000000000e+02,1.819638500000000079e+02
4.440000000000000000e+02,1.822421300000000031e+02
4.450000000000000000e+02,1.825198200000000099e+02
4.460000000000000000e+02,1.827969400000000064e+02
4.470000000000000000e+02,1.830734899999999925e+02
4.480000000000000000e+02,1.833494699999999966e+02
4.490000000000000000e+02,1.836248799999999903e+02
4.500000000000000000e+02,1.838997300000000052e+02
4.510000000000000000e+02,1.841740299999999877e+02
4.520000000000000000e+02,1.844477400000000102e+02
4.530000000000000000e+02,1.847208899999999971e+02
4.540000000000000000e+02,1.849934800000000052e+02
4.550000000000000000e+02,1.852655000000000030e+02
4.560000000000000000e+02,1.855369699999999966e+02
4.570000000000000000e+02,1.858078800000000115e+02
4.580000000000000000e+02,1.860782199999999875e+02
4.590000000000000000e+02,1.863479900000000100e+02
4.600000000000000000e+02,1.866172200000000032e+02
4.610000000000000000e+02,1.868858799999999860e+02
4.620000000000000000e+02,1.871539899999999932e+02
4.630000000000000000e+02,1.874215399999999931e+02
4.640000000000000000e+02,1.876885399999999890e+02
4.650000000000000000e+02,1.879549900000000093e+02
4.660000000000000000e+02,1.882208699999999908e+02
4.670000000000000000e+02,1.884862200000000030e+02
4.680000000000000000e+02,1.887510100000000079e+02
4.690000000000000000e+02,1.890152300000000025e+02
4.700000000000000000e+02,1.892789199999999994e+02
4.710000000000000000e+02,1.895420499999999890e+02
4.720000000000000000e+02,1.898046400000000062e+02
4.730000000000000000e+02,1.900666799999999910e+02
4.740000000000000000e+02,1.903281700000000001e+02
4.750000000000000000e+02,1.905891100000000051e+02
4.760000000000000000e+02,1.908495200000000125e+02
4.770000000000000000e+02,1.911093799999999874e+02
4.780000000000000000e+02,1.913686700000000087e+02
4.790000000000000000e+02,1.916274400000000071e+02
4.800000000000000000e+02,1.918856800000000078e+02
4.810000000000000000e+02,1.921433600000000013e+02
4.820000000000000000e+02,1.924004999999999939e+02
4.830000000000000000e+02,1.926571199999999919e+02
4.840000000000000000e+02,1.929131800000000112e+02
4.850000000000000000e+02,1.931687000000000012e+02
4.860000000000000000e+02,1.934236899999999935e+02
4.870000000000000000e+02,1.936781599999999912e+02
4.880000000000000000e+02,1.939320700000000102e+02
4.890000000000000000e+02,1.941854600000000062e+02
4.900000000000000000e+02,1.944383100000000013e+02
4.910000000000000000e+02,1.946906299999999987e+02
4.920000000000000000e+02,1.949424099999999953e+02
4.930000000000000000e+02,1.951936599999999942e+02
4.940000000000000000e+02,1.954444100000000049e+02
4.950000000000000000e+02,1.956946000000000083e+02
4.960000000000000000e+02,1.959442600000000141e+02
4.970000000000000000e+02,1.961933899999999937e+02
4.980000000000000000e+02,1.964420000000000073e+02
4.990000000000000000e+02,1.966900899999999979e+02
5.000000000000000000e+02,1.969376499999999908e+02
5.010000000000000000e+02,1.971846899999999891e+02
5.020000000000000000e+02,1.974311999999999898e+02
5.030000000000000000e+02,1.976771899999999960e+02
5.040000000000000000e+02,1.979226500000000044e+02
5.050000000000000000e+02,1.981675899999999899e+02
5.060000000000000000e+02,1.984120200000000125e+02
5.070000000000000000e+02,1.986559300000000121e+02
5.080000000000000000e+02,1.988993100000000140e+02
5.090000000000000000e+02,1.991421799999999962e+02
5.100000000000000000e+02,1.993845200000000091e+02
5.110000000000000000e+02,1.996263600000000054e+02
5.120000000000000000e+02,1.998676900000000103e+02
5.130000000000000000e+02,2.001084899999999891e+02
5.140000000000000000e+02,2.003487700000000018e+02
5.150000000000000000e+02,2.005885499999999979e+02
5.160000000000000000e+02,2.008277999999999963e+02
5.170000000000000000e+02,2.010665700000000129e+02
5.180000000000000000e+02,2.013048100000000034e+02
5.190000000000000000e+02,2.015425600000000088e+02
5.200000000000000000e+02,2.017797700000000134e+02
5.210000000000000000e+02,2.020164800000000014e+02
5.220000000000000000e+02,2.022527000000000044e+02
5.230000000000000000e+02,2.024884000000000128e+02
5.240000000000000000e+02,2.027236000000000047e+02
5.250000000000000000e+02,2.029582800000000020e+02
5.260000000000000000e+02,2.031924699999999859e+02
5.270000000000000000e+02,2.034261500000000069e+02
5.280000000000000000e+02,2.036593300000000113e+02
5.290000000000000000e+02,2.038920099999999991e+02
5.300000000000000000e+02,2.041241899999999987e+02
5.310000000000000000e+02,2.043558800000000133e+02
5.320000000000000000e+02,2.045870500000000050e+02
5.330000000000000000e+02,2.048177300000000116e+02
5.340000000000000000e+02,2.050479300000000080e+02
5.350000000000000000e+02,2.052776000000000067e+02
5.360000000000000000e+02,2.055068100000000015e+02
5.370000000000000000e+02,2.057354899999999986e+02
5.380000000000000000e+02,2.059636999999999887e+02
5.390000000000000000e+02,2.061914099999999905e+02
5.400000000000000000e+02,2.064186200000000042e+02
5.410000000000000000e+02,2.066453600000000108e+02
5.420000000000000000e+02,2.068715799999999945e+02
5.430000000000000000e+02,2.070973400000000026e+02
5.440000000000000000e+02,2.073225899999999911e+02
5.450000000000000000e+02,2.075473499999999945e+02
5.460000000000000000e+02,2.077716200000000129e+02
5.470000000000000000e+02,2.079954199999999958e+02
5.480000000000000000e+02,2.082187199999999905e+02
5.490000000000000000e+02,2.084415400000000034e+02
5.500000000000000000e+02,2.086638800000000060e+02
5.510000000000000000e+02,2.088857299999999952e+02
5.520000000000000000e+02,2.091071000000000026e+02
5.530000000000000000e+02,2.093279899999999998e+02
5.540000000000000000e+02,2.095483900000000119e+02
5.550000000000000000e+02,2.097683100000000138e+02
5.560000000000000000e+02,2.099877600000000086e+02
5.570000000000000000e+02,2.102067299999999932e+02
5.580000000000000000e+02,2.104251999999999896e+02
5.590000000000000000e+02,2.106432200000000137e+02
5.600000000000000000e+02,2.108607499999999959e+02
5.610000000000000000e+02,2.110778200000000027e+02
5.620000000000000000e+02,2.112943899999999928e+02
5.630000000000000000e+02,2.115105100000000107e+02
5.640000000000000000e+02,2.117261399999999867e+02
5.650000000000000000e+02,2.119413099999999872e+02
5.660000000000000000e+02,2.121559900000000027e+02
5.670000000000000000e+02,2.123702199999999891e+02
5.680000000000000000e+02,2.125839699999999937e+02
5.690000000000000000e+02,2.127972599999999943e+02
5.700000000000000000e+02,2.130100700000000131e+02
5.710000000000000000e+02,2.132224099999999964e+02
5.720000000000000000e+02,2.134343100000000106e+02
5.730000000000000000e+02,2.136457200000000114e+02
5.740000000000000000e+02,2.138566700000000083e+02
5.750000000000000000e+02,2.140671499999999980e+02
5.760000000000000000e+02,2.142771799999999871e+02
5.770000000000000000e+02,2.144867399999999975e+02
5.780000000000000000e+02,2.146958300000000008e+02
5.790000000000000000e+02,2.149044600000000003e+02
5.800000000000000000e+02,2.151126399999999990e+02
5.810000000000000000e+02,2.153203599999999938e+02
5.820000000000000000e+02,2.155276200000000131e+02
5.830000000000000000e+02,2.157344099999999969e+02
5.840000000000000000e+02,2.159407500000000084e+02
5.850000000000000000e+02,2.161466399999999908e+02
5.860000000000000000e+02,2.163520699999999977e+02
5.870000000000000000e+02,2.165570500000000038e+02
5.880000000000000000e+02,2.167615700000000061e+02
5.890000000000000000e+02,2.169656400000000076e+02
5.900000000000000000e+02,2.171692700000000116e+02
5.910000000000000000e+02,2.173724200000000053e+02
5.920000000000000000e+02,2.175751300000000015e+02
5.930000000000000000e+02,2.177774000000000001e+02
5.940000000000000000e+02,2.179792199999999980e+02
5.950000000000000000e+02,2.181805699999999888e+02
5.960000000000000000e+02,2.183814999999999884e+02
5.970000000000000000e+02,2.185819700000000125e+02
5.980000000000000000e+02,2.187820000000000107e+02
5.990000000000000000e+02,2.189815700000000049e+02