# Time [s], Temperature [C]
1.000000000000000000e+00,2.499997099999999861e+01
2.000000000000000000e+00,1.067930900000000065e+02
3.000000000000000000e+00,1.569755199999999888e+02
4.000000000000000000e+00,1.949451599999999871e+02
5.000000000000000000e+00,2.263831800000000101e+02
6.000000000000000000e+00,2.534672899999999913e+02
7.000000000000000000e+00,2.774316699999999969e+02
8.000000000000000000e+00,2.993291300000000206e+02
9.000000000000000000e+00,3.201339399999999955e+02
1.000000000000000000e+01,3.394922199999999748e+02
1.100000000000000000e+01,3.566259499999999889e+02
1.200000000000000000e+01,3.719017900000000054e+02
1.300000000000000000e+01,3.857352900000000204e+02
1.400000000000000000e+01,3.983052700000000073e+02
1.500000000000000000e+01,4.096535000000000082e+02
1.600000000000000000e+01,4.197688899999999990e+02
1.700000000000000000e+01,4.286315000000000168e+02
1.800000000000000000e+01,4.364102500000000191e+02
1.900000000000000000e+01,4.433065500000000156e+02
2.000000000000000000e+01,4.494901100000000156e+02
2.100000000000000000e+01,4.555987499999999955e+02
2.200000000000000000e+01,4.617706000000000017e+02
2.300000000000000000e+01,4.681173999999999751e+02
2.400000000000000000e+01,4.753063700000000154e+02
2.500000000000000000e+01,4.831286299999999869e+02
2.600000000000000000e+01,4.913333700000000022e+02
2.700000000000000000e+01,4.996200000000000045e+02
2.800000000000000000e+01,5.063464999999999918e+02
2.900000000000000000e+01,5.118794599999999946e+02
3.000000000000000000e+01,5.168347199999999475e+02
3.100000000000000000e+01,5.214473299999999654e+02
3.200000000000000000e+01,5.259178500000000440e+02
3.300000000000000000e+01,5.303649299999999585e+02
3.400000000000000000e+01,5.348870799999999690e+02
3.500000000000000000e+01,5.395507199999999557e+02
3.600000000000000000e+01,5.443373400000000402e+02
3.700000000000000000e+01,5.491753499999999804e+02
3.800000000000000000e+01,5.539423199999999952e+02
3.900000000000000000e+01,5.583852500000000418e+02
4.000000000000000000e+01,5.623514999999999873e+02
4.100000000000000000e+01,5.659263899999999694e+02
4.200000000000000000e+01,5.692260700000000497e+02
4.300000000000000000e+01,5.723568099999999959e+02
4.400000000000000000e+01,5.753891599999999471e+02
4.500000000000000000e+01,5.783923999999999523e+02
4.600000000000000000e+01,5.813738399999999729e+02
4.700000000000000000e+01,5.844075900000000274e+02
4.800000000000000000e+01,5.874404899999999543e+02
4.900000000000000000e+01,5.905020799999999781e+02
5.000000000000000000e+01,5.935327800000000025e+02
5.100000000000000000e+01,5.964632599999999911e+02
5.200000000000000000e+01,5.992531699999999546e+02
5.300000000000000000e+01,6.018737800000000107e+02
5.400000000000000000e+01,6.043207999999999629e+02
5.500000000000000000e+01,6.066325699999999870e+02
5.600000000000000000e+01,6.088592499999999745e+02
5.700000000000000000e+01,6.110209999999999582e+02
5.800000000000000000e+01,6.131395300000000361e+02
5.900000000000000000e+01,6.152432300000000396e+02
6.000000000000000000e+01,6.173383199999999533e+02
6.100000000000000000e+01,6.194168700000000172e+02
6.200000000000000000e+01,6.215130000000000337e+02
6.300000000000000000e+01,6.235779999999999745e+02
6.400000000000000000e+01,6.256242099999999482e+02
6.500000000000000000e+01,6.276240199999999732e+02
6.600000000000000000e+01,6.295421800000000303e+02
6.700000000000000000e+01,6.313970900000000483e+02
6.800000000000000000e+01,6.331730300000000398e+02
6.900000000000000000e+01,6.348792099999999436e+02
7.000000000000000000e+01,6.365270400000000564e+02
7.100000000000000000e+01,6.381480699999999615e+02
7.200000000000000000e+01,6.397262600000000248e+02
7.300000000000000000e+01,6.412882700000000114e+02
7.400000000000000000e+01,6.428461899999999787e+02
7.500000000000000000e+01,6.443804300000000467e+02
7.600000000000000000e+01,6.459131499999999733e+02
7.700000000000000000e+01,6.474290799999999990e+02
7.800000000000000000e+01,6.489426300000000083e+02
7.900000000000000000e+01,6.504254200000000310e+02
8.000000000000000000e+01,6.518869600000000446e+02
8.100000000000000000e+01,6.533217799999999897e+02
8.200000000000000000e+01,6.547090500000000475e+02
8.300000000000000000e+01,6.560672600000000330e+02
8.400000000000000000e+01,6.573809199999999464e+02
8.500000000000000000e+01,6.586736499999999523e+02
8.600000000000000000e+01,6.599376800000000003e+02
8.700000000000000000e+01,6.611806000000000267e+02
8.800000000000000000e+01,6.623995999999999640e+02
8.900000000000000000e+01,6.636271400000000540e+02
9.000000000000000000e+01,6.648281899999999496e+02
9.100000000000000000e+01,6.660269200000000183e+02
9.200000000000000000e+01,6.672239399999999705e+02
9.300000000000000000e+01,6.684041099999999460e+02
9.400000000000000000e+01,6.695711700000000519e+02
9.500000000000000000e+01,6.707368800000000419e+02
9.600000000000000000e+01,6.718712199999999939e+02
9.700000000000000000e+01,6.729984100000000353e+02
9.800000000000000000e+01,6.740944799999999759e+02
9.900000000000000000e+01,6.751788299999999481e+02
1.000000000000000000e+02,6.762325399999999718e+02
1.010000000000000000e+02,6.772846700000000055e+02
1.020000000000000000e+02,6.783097500000000082e+02
1.030000000000000000e+02,6.793295900000000529e+02
1.040000000000000000e+02,6.803438099999999622e+02
1.050000000000000000e+02,6.813389899999999670e+02
1.060000000000000000e+02,6.823363600000000133e+02
1.070000000000000000e+02,6.833153700000000299e+02
1.080000000000000000e+02,6.843012700000000450e+02
1.090000000000000000e+02,6.852683100000000422e+02
1.100000000000000000e+02,6.862418800000000374e+02
1.110000000000000000e+02,6.871916499999999814e+02
1.120000000000000000e+02,6.881375699999999824e+02
1.130000000000000000e+02,6.890736699999999928e+02
1.140000000000000000e+02,6.899910899999999856e+02
1.150000000000000000e+02,6.908924600000000282e+02
1.160000000000000000e+02,6.917929100000000062e+02
1.170000000000000000e+02,6.926746200000000044e+02
1.180000000000000000e+02,6.935530400000000100e+02
1.190000000000000000e+02,6.944238299999999526e+02
1.200000000000000000e+02,6.952844199999999546e+02
1.210000000000000000e+02,6.961438000000000557e+02
1.220000000000000000e+02,6.969915799999999990e+02
1.230000000000000000e+02,6.978346599999999853e+02
1.240000000000000000e+02,6.986755399999999554e+02
1.250000000000000000e+02,6.995040900000000192e+02
1.260000000000000000e+02,7.003356300000000374e+02
1.270000000000000000e+02,7.011488600000000133e+02
1.280000000000000000e+02,7.019639899999999670e+02
1.290000000000000000e+02,7.027601899999999659e+02
1.300000000000000000e+02,7.035556000000000267e+02
1.310000000000000000e+02,7.043372799999999643e+02
1.320000000000000000e+02,7.051165799999999990e+02
1.330000000000000000e+02,7.058876299999999446e+02
1.340000000000000000e+02,7.066524699999999939e+02
1.350000000000000000e+02,7.074140599999999495e+02
1.360000000000000000e+02,7.081723600000000260e+02
1.370000000000000000e+02,7.089166300000000547e+02
1.380000000000000000e+02,7.096635700000000497e+02
1.390000000000000000e+02,7.104013099999999667e+02
1.400000000000000000e+02,7.111312900000000354e+02
1.410000000000000000e+02,7.118586400000000367e+02
1.420000000000000000e+02,7.125797099999999773e+02
1.430000000000000000e+02,7.133008399999999938e+02
1.440000000000000000e+02,7.140064700000000357e+02
1.450000000000000000e+02,7.147068500000000313e+02
1.460000000000000000e+02,7.154033799999999701e+02
1.470000000000000000e+02,7.160989399999999705e+02
1.480000000000000000e+02,7.167819200000000137e+02
1.490000000000000000e+02,7.174660000000000082e+02
1.500000000000000000e+02,7.181411100000000260e+02
1.510000000000000000e+02,7.188156699999999546e+02
1.520000000000000000e+02,7.194799799999999550e+02
1.530000000000000000e+02,7.201420299999999770e+02
1.540000000000000000e+02,7.208023100000000341e+02
1.550000000000000000e+02,7.214520899999999983e+02
1.560000000000000000e+02,7.220980799999999817e+02
1.570000000000000000e+02,7.227403600000000097e+02
1.580000000000000000e+02,7.233739600000000110e+02
1.590000000000000000e+02,7.240101300000000037e+02
1.600000000000000000e+02,7.246322000000000116e+02
1.610000000000000000e+02,7.252554900000000089e+02
1.620000000000000000e+02,7.258724999999999454e+02
1.630000000000000000e+02,7.264818099999999959e+02
1.640000000000000000e+02,7.270920999999999594e+02
1.650000000000000000e+02,7.276901199999999790e+02
1.660000000000000000e+02,7.282927899999999681e+02
1.670000000000000000e+02,7.288868999999999687e+02
1.680000000000000000e+02,7.294787000000000035e+02
1.690000000000000000e+02,7.300573100000000295e+02
1.700000000000000000e+02,7.306413599999999633e+02
1.710000000000000000e+02,7.312087999999999965e+02
1.720000000000000000e+02,7.317869299999999839e+02
1.730000000000000000e+02,7.323473500000000058e+02
1.740000000000000000e+02,7.329130900000000111e+02
1.750000000000000000e+02,7.334660000000000082e+02
1.760000000000000000e+02,7.340212999999999965e+02
1.770000000000000000e+02,7.345690299999999979e+02
1.780000000000000000e+02,7.351085799999999608e+02
1.790000000000000000e+02,7.356533799999999701e+02
1.800000000000000000e+02,7.361851199999999835e+02
1.810000000000000000e+02,7.367132000000000289e+02
1.820000000000000000e+02,7.372446899999999914e+02
1.830000000000000000e+02,7.377628200000000334e+02
1.840000000000000000e+02,7.382814300000000003e+02
1.850000000000000000e+02,7.387976099999999633e+02
1.860000000000000000e+02,7.393040200000000368e+02
1.870000000000000000e+02,7.398118899999999485e+02
1.880000000000000000e+02,7.403083500000000186e+02
1.890000000000000000e+02,7.408099999999999454e+02
1.900000000000000000e+02,7.412987100000000282e+02
1.910000000000000000e+02,7.417935800000000199e+02
1.920000000000000000e+02,7.422738000000000511e+02
1.930000000000000000e+02,7.427609899999999925e+02
1.940000000000000000e+02,7.432359000000000151e+02
1.950000000000000000e+02,7.437144200000000183e+02
1.960000000000000000e+02,7.441829199999999673e+02
1.970000000000000000e+02,7.446506299999999783e+02
1.980000000000000000e+02,7.451190800000000536e+02
1.990000000000000000e+02,7.455781200000000126e+02
2.000000000000000000e+02,7.460394300000000385e+02
2.010000000000000000e+02,7.464919999999999618e+02
2.020000000000000000e+02,7.469465900000000147e+02
2.030000000000000000e+02,7.473944099999999935e+02
2.040000000000000000e+02,7.478429599999999482e+02
2.050000000000000000e+02,7.482882100000000491e+02
2.060000000000000000e+02,7.487293100000000550e+02
2.070000000000000000e+02,7.491706500000000233e+02
2.080000000000000000e+02,7.496095599999999877e+02
2.090000000000000000e+02,7.500441899999999578e+02
2.100000000000000000e+02,7.504800400000000309e+02
2.110000000000000000e+02,7.509112499999999955e+02
2.120000000000000000e+02,7.513418599999999969e+02
2.130000000000000000e+02,7.517707500000000209e+02
2.140000000000000000e+02,7.522024499999999989e+02
2.150000000000000000e+02,7.526278700000000299e+02
2.160000000000000000e+02,7.530565800000000536e+02
2.170000000000000000e+02,7.534832800000000361e+02
2.180000000000000000e+02,7.539110100000000330e+02
2.190000000000000000e+02,7.543360599999999749e+02
2.200000000000000000e+02,7.547644699999999602e+02
2.210000000000000000e+02,7.551931799999999839e+02
2.220000000000000000e+02,7.556200000000000045e+02
2.230000000000000000e+02,7.560507800000000316e+02
2.240000000000000000e+02,7.564845000000000255e+02
2.250000000000000000e+02,7.569146700000000010e+02
2.260000000000000000e+02,7.573493700000000217e+02
2.270000000000000000e+02,7.577889999999999873e+02
2.280000000000000000e+02,7.582259500000000116e+02
2.290000000000000000e+02,7.586699800000000096e+02
2.300000000000000000e+02,7.591145599999999831e+02
2.310000000000000000e+02,7.595604200000000219e+02
2.320000000000000000e+02,7.600118999999999687e+02
2.330000000000000000e+02,7.604670399999999972e+02
2.340000000000000000e+02,7.609208399999999983e+02
2.350000000000000000e+02,7.613764599999999518e+02
2.360000000000000000e+02,7.618383800000000292e+02
2.370000000000000000e+02,7.623008999999999560e+02
2.380000000000000000e+02,7.627654999999999745e+02
2.390000000000000000e+02,7.632293100000000550e+02
2.400000000000000000e+02,7.636981200000000172e+02
2.410000000000000000e+02,7.641625999999999976e+02
2.420000000000000000e+02,7.646363499999999931e+02
2.430000000000000000e+02,7.651038200000000415e+02
2.440000000000000000e+02,7.655778800000000501e+02
2.450000000000000000e+02,7.660472999999999502e+02
2.460000000000000000e+02,7.665220900000000483e+02
2.470000000000000000e+02,7.669930399999999509e+02
2.480000000000000000e+02,7.674675300000000107e+02
2.490000000000000000e+02,7.679395100000000411e+02
2.500000000000000000e+02,7.684111299999999574e+02
2.510000000000000000e+02,7.688853800000000547e+02
2.520000000000000000e+02,7.693522299999999632e+02
2.530000000000000000e+02,7.698264199999999846e+02
2.540000000000000000e+02,7.702948000000000093e+02
2.550000000000000000e+02,7.707662400000000389e+02
2.560000000000000000e+02,7.712332199999999602e+02
2.570000000000000000e+02,7.717001999999999953e+02
2.580000000000000000e+02,7.721648599999999760e+02
2.590000000000000000e+02,7.726294599999999946e+02
2.600000000000000000e+02,7.730939300000000003e+02
2.610000000000000000e+02,7.735540799999999990e+02
2.620000000000000000e+02,7.740139799999999468e+02
2.630000000000000000e+02,7.744744299999999839e+02
2.640000000000000000e+02,7.749272499999999582e+02
2.650000000000000000e+02,7.753849500000000035e+02
2.660000000000000000e+02,7.758361200000000508e+02
2.670000000000000000e+02,7.762896700000000010e+02
2.680000000000000000e+02,7.767375500000000557e+02
2.690000000000000000e+02,7.771849999999999454e+02
2.700000000000000000e+02,7.776303100000000086e+02
2.710000000000000000e+02,7.780733000000000175e+02
2.720000000000000000e+02,7.785114700000000312e+02
2.730000000000000000e+02,7.789522699999999986e+02
2.740000000000000000e+02,7.793880599999999959e+02
2.750000000000000000e+02,7.798231200000000172e+02
2.760000000000000000e+02,7.802551899999999705e+02
2.770000000000000000e+02,7.806854899999999589e+02
2.780000000000000000e+02,7.811119999999999663e+02
2.790000000000000000e+02,7.815383299999999736e+02
2.800000000000000000e+02,7.819602700000000368e+02
2.810000000000000000e+02,7.823806799999999839e+02
2.820000000000000000e+02,7.827987100000000282e+02
2.830000000000000000e+02,7.832144799999999805e+02
2.840000000000000000e+02,7.836292700000000195e+02
2.850000000000000000e+02,7.840377799999999979e+02
2.860000000000000000e+02,7.844452499999999873e+02
2.870000000000000000e+02,7.848540600000000040e+02
2.880000000000000000e+02,7.852577499999999873e+02
2.890000000000000000e+02,7.856573499999999513e+02
2.900000000000000000e+02,7.860572499999999536e+02
2.910000000000000000e+02,7.864535499999999502e+02
2.920000000000000000e+02,7.868467399999999543e+02
2.930000000000000000e+02,7.872396899999999960e+02
2.940000000000000000e+02,7.876263999999999896e+02
2.950000000000000000e+02,7.880156200000000126e+02
2.960000000000000000e+02,7.883973399999999856e+02
2.970000000000000000e+02,7.887797199999999975e+02
2.980000000000000000e+02,7.891574100000000271e+02
2.990000000000000000e+02,7.895339999999999918e+02
3.000000000000000000e+02,7.899083900000000540e+02
3.010000000000000000e+02,7.902797900000000482e+02
3.020000000000000000e+02,7.906494800000000396e+02
3.030000000000000000e+02,7.910167800000000398e+02
3.040000000000000000e+02,7.913806200000000217e+02
3.050000000000000000e+02,7.917435900000000402e+02
3.060000000000000000e+02,7.921032699999999522e+02
3.070000000000000000e+02,7.924585600000000341e+02
3.080000000000000000e+02,7.928143900000000031e+02
3.090000000000000000e+02,7.931677899999999681e+02
3.100000000000000000e+02,7.935153800000000501e+02
3.110000000000000000e+02,7.938643799999999828e+02
3.120000000000000000e+02,7.942081899999999450e+02
3.130000000000000000e+02,7.945515699999999697e+02
3.140000000000000000e+02,7.948922700000000532e+02
3.150000000000000000e+02,7.952300400000000309e+02
3.160000000000000000e+02,7.955650000000000546e+02
3.170000000000000000e+02,7.959007000000000289e+02
3.180000000000000000e+02,7.962290600000000040e+02
3.190000000000000000e+02,7.965585899999999810e+02
3.200000000000000000e+02,7.968848299999999654e+02
3.210000000000000000e+02,7.972088599999999587e+02
3.220000000000000000e+02,7.975302100000000110e+02
3.230000000000000000e+02,7.978521100000000388e+02
3.240000000000000000e+02,7.981666300000000547e+02
3.250000000000000000e+02,7.984824200000000474e+02
3.260000000000000000e+02,7.987952299999999468e+02
3.270000000000000000e+02,7.991066899999999578e+02
3.280000000000000000e+02,7.994113200000000461e+02
3.290000000000000000e+02,7.997195400000000518e+02
3.300000000000000000e+02,8.000219100000000481e+02
3.310000000000000000e+02,8.003242800000000443e+02
3.320000000000000000e+02,8.006244500000000244e+02
3.330000000000000000e+02,8.009207199999999602e+02
3.340000000000000000e+02,8.012158799999999701e+02
3.350000000000000000e+02,8.015090900000000147e+02
3.360000000000000000e+02,8.018006599999999935e+02
3.370000000000000000e+02,8.020866099999999506e+02
3.380000000000000000e+02,8.023749400000000378e+02
3.390000000000000000e+02,8.026592399999999543e+02
3.400000000000000000e+02,8.029395100000000411e+02
3.410000000000000000e+02,8.032204600000000028e+02
3.420000000000000000e+02,8.034991499999999860e+02
3.430000000000000000e+02,8.037758199999999533e+02
3.440000000000000000e+02,8.040481600000000526e+02
3.450000000000000000e+02,8.043207999999999629e+02
3.460000000000000000e+02,8.045905800000000454e+02
3.470000000000000000e+02,8.048569300000000339e+02
3.480000000000000000e+02,8.051238399999999729e+02
3.490000000000000000e+02,8.053876299999999446e+02
3.500000000000000000e+02,8.056482499999999618e+02
3.510000000000000000e+02,8.059082600000000411e+02
3.520000000000000000e+02,8.061664399999999659e+02
3.530000000000000000e+02,8.064221199999999499e+02
3.540000000000000000e+02,8.066761500000000069e+02
3.550000000000000000e+02,8.069285300000000234e+02
3.560000000000000000e+02,8.071771199999999453e+02
3.570000000000000000e+02,8.074276700000000346e+02
3.580000000000000000e+02,8.076708399999999983e+02
3.590000000000000000e+02,8.079175400000000309e+02
3.600000000000000000e+02,8.081599700000000439e+02
3.610000000000000000e+02,8.083999000000000024e+02
3.620000000000000000e+02,8.086392200000000230e+02
3.630000000000000000e+02,8.088764599999999518e+02
3.640000000000000000e+02,8.091093100000000504e+02
3.650000000000000000e+02,8.093458299999999781e+02
3.660000000000000000e+02,8.095743400000000065e+02
3.670000000000000000e+02,8.098065199999999777e+02
3.680000000000000000e+02,8.100324100000000271e+02
3.690000000000000000e+02,8.102598900000000413e+02
3.700000000000000000e+02,8.104837599999999611e+02
3.710000000000000000e+02,8.107060500000000047e+02
3.720000000000000000e+02,8.109288299999999481e+02
3.730000000000000000e+02,8.111452600000000075e+02
3.740000000000000000e+02,8.113651700000000346e+02
3.750000000000000000e+02,8.115788000000000011e+02
3.760000000000000000e+02,8.117941899999999578e+02
3.770000000000000000e+02,8.120079299999999876e+02
3.780000000000000000e+02,8.122166700000000219e+02
3.790000000000000000e+02,8.124268799999999828e+02
3.800000000000000000e+02,8.126334200000000010e+02
3.810000000000000000e+02,8.128407600000000457e+02
3.820000000000000000e+02,8.130419299999999794e+02
3.830000000000000000e+02,8.132482300000000350e+02
3.840000000000000000e+02,8.134456800000000385e+02
3.850000000000000000e+02,8.136476400000000240e+02
3.860000000000000000e+02,8.138430200000000241e+02
3.870000000000000000e+02,8.140416300000000547e+02
3.880000000000000000e+02,8.142336400000000367e+02
3.890000000000000000e+02,8.144296299999999746e+02
3.900000000000000000e+02,8.146174899999999752e+02
3.910000000000000000e+02,8.148109699999999975e+02
3.920000000000000000e+02,8.149963400000000320e+02
3.930000000000000000e+02,8.151868299999999863e+02
3.940000000000000000e+02,8.153685900000000402e+02
3.950000000000000000e+02,8.155570099999999911e+02
3.960000000000000000e+02,8.157359000000000151e+02
3.970000000000000000e+02,8.159181499999999687e+02
3.980000000000000000e+02,8.160980799999999817e+02
3.990000000000000000e+02,8.162747799999999643e+02
4.000000000000000000e+02,8.164534300000000258e+02
4.010000000000000000e+02,8.166271400000000540e+02
4.020000000000000000e+02,8.168033400000000483e+02
4.030000000000000000e+02,8.169730200000000195e+02
4.040000000000000000e+02,8.171472199999999475e+02
4.050000000000000000e+02,8.173145799999999781e+02
4.060000000000000000e+02,8.174832800000000361e+02
4.070000000000000000e+02,8.176505700000000161e+02
4.080000000000000000e+02,8.178154299999999921e+02
4.090000000000000000e+02,8.179808299999999690e+02
4.100000000000000000e+02,8.181427599999999529e+02
4.110000000000000000e+02,8.183060900000000402e+02
4.120000000000000000e+02,8.184648399999999810e+02
4.130000000000000000e+02,8.186239000000000487e+02
4.140000000000000000e+02,8.187825299999999515e+02
4.150000000000000000e+02,8.189371300000000247e+02
4.160000000000000000e+02,8.190948499999999513e+02
4.170000000000000000e+02,8.192468300000000454e+02
4.180000000000000000e+02,8.193994800000000396e+02
4.190000000000000000e+02,8.195517599999999447e+02
4.200000000000000000e+02,8.197014199999999846e+02
4.210000000000000000e+02,8.198488800000000083e+02
4.220000000000000000e+02,8.199986599999999726e+02
4.230000000000000000e+02,8.201432499999999663e+02
4.240000000000000000e+02,8.202904099999999517e+02
4.250000000000000000e+02,8.204332900000000564e+02
4.260000000000000000e+02,8.205755000000000337e+02
4.270000000000000000e+02,8.207183800000000247e+02
4.280000000000000000e+02,8.208582199999999602e+02
4.290000000000000000e+02,8.209970700000000079e+02
4.300000000000000000e+02,8.211367800000000443e+02
4.310000000000000000e+02,8.212728899999999612e+02
4.320000000000000000e+02,8.214084500000000162e+02
4.330000000000000000e+02,8.215440700000000334e+02
4.340000000000000000e+02,8.216773100000000341e+02
4.350000000000000000e+02,8.218091399999999567e+02
4.360000000000000000e+02,8.219420199999999568e+02
4.370000000000000000e+02,8.220717799999999897e+02
4.380000000000000000e+02,8.222001999999999953e+02
4.390000000000000000e+02,8.223298999999999523e+02
4.400000000000000000e+02,8.224561800000000176e+02
4.410000000000000000e+02,8.225819099999999935e+02
4.420000000000000000e+02,8.227083699999999453e+02
4.430000000000000000e+02,8.228313000000000557e+02
4.440000000000000000e+02,8.229541600000000017e+02
4.450000000000000000e+02,8.230772699999999986e+02
4.460000000000000000e+02,8.231976899999999659e+02
4.470000000000000000e+02,8.233170800000000327e+02
4.480000000000000000e+02,8.234370699999999488e+02
4.490000000000000000e+02,8.235544999999999618e+02
4.500000000000000000e+02,8.236710199999999986e+02
4.510000000000000000e+02,8.237879000000000360e+02
4.520000000000000000e+02,8.239023999999999432e+02
4.530000000000000000e+02,8.240165399999999636e+02
4.540000000000000000e+02,8.241280500000000302e+02
4.550000000000000000e+02,8.242426100000000133e+02
4.560000000000000000e+02,8.243523599999999760e+02
4.570000000000000000e+02,8.244621600000000399e+02
4.580000000000000000e+02,8.245733000000000175e+02
4.590000000000000000e+02,8.246807900000000018e+02
4.600000000000000000e+02,8.247880199999999604e+02
4.610000000000000000e+02,8.248939800000000560e+02
4.620000000000000000e+02,8.250013999999999896e+02
4.630000000000000000e+02,8.251047399999999925e+02
4.640000000000000000e+02,8.252094100000000481e+02
4.650000000000000000e+02,8.253110400000000482e+02
4.660000000000000000e+02,8.254150399999999763e+02
4.670000000000000000e+02,8.255152000000000498e+02
4.680000000000000000e+02,8.256160300000000234e+02
4.690000000000000000e+02,8.257139300000000048e+02
4.700000000000000000e+02,8.258151900000000296e+02
4.710000000000000000e+02,8.259116800000000467e+02
4.720000000000000000e+02,8.260093399999999519e+02
4.730000000000000000e+02,8.261041300000000547e+02
4.740000000000000000e+02,8.262020899999999983e+02
4.750000000000000000e+02,8.262949800000000096e+02
4.760000000000000000e+02,8.263895300000000361e+02
4.770000000000000000e+02,8.264812600000000202e+02
4.780000000000000000e+02,8.265756800000000339e+02
4.790000000000000000e+02,8.266658899999999903e+02
4.800000000000000000e+02,8.267570200000000114e+02
4.810000000000000000e+02,8.268455199999999650e+02
4.820000000000000000e+02,8.269371899999999869e+02
4.830000000000000000e+02,8.270236800000000130e+02
4.840000000000000000e+02,8.271121200000000044e+02
4.850000000000000000e+02,8.271981799999999794e+02
4.860000000000000000e+02,8.272843599999999924e+02
4.870000000000000000e+02,8.273706100000000561e+02
4.880000000000000000e+02,8.274550799999999526e+02
4.890000000000000000e+02,8.275388199999999870e+02
4.900000000000000000e+02,8.276219499999999698e+02
4.910000000000000000e+02,8.277035499999999502e+02
4.920000000000000000e+02,8.277872300000000223e+02
4.930000000000000000e+02,8.278673099999999749e+02
4.940000000000000000e+02,8.279483000000000175e+02
4.950000000000000000e+02,8.280266100000000051e+02
4.960000000000000000e+02,8.281079700000000230e+02
4.970000000000000000e+02,8.281851199999999835e+02
4.980000000000000000e+02,8.282634900000000471e+02
4.990000000000000000e+02,8.283392300000000432e+02
5.000000000000000000e+02,8.284160200000000032e+02
5.010000000000000000e+02,8.284927999999999884e+02
5.020000000000000000e+02,8.285673199999999952e+02
5.030000000000000000e+02,8.286418499999999767e+02
5.040000000000000000e+02,8.287152099999999564e+02
5.050000000000000000e+02,8.287882100000000491e+02
5.060000000000000000e+02,8.288602899999999636e+02
5.070000000000000000e+02,8.289339599999999564e+02
5.080000000000000000e+02,8.290039699999999812e+02
5.090000000000000000e+02,8.290753799999999956e+02
5.100000000000000000e+02,8.291445300000000316e+02
5.110000000000000000e+02,8.292139300000000048e+02
5.120000000000000000e+02,8.292844800000000305e+02
5.130000000000000000e+02,8.293516799999999876e+02
5.140000000000000000e+02,8.294195600000000468e+02
5.150000000000000000e+02,8.294864499999999907e+02
5.160000000000000000e+02,8.295529800000000478e+02
5.170000000000000000e+02,8.296179200000000264e+02
5.180000000000000000e+02,8.296853599999999460e+02
5.190000000000000000e+02,8.297492099999999482e+02
5.200000000000000000e+02,8.298139599999999518e+02
5.210000000000000000e+02,8.298770799999999781e+02
5.220000000000000000e+02,8.299400600000000168e+02
5.230000000000000000e+02,8.300020100000000411e+02
5.240000000000000000e+02,8.300661599999999680e+02
5.250000000000000000e+02,8.301265899999999647e+02
5.260000000000000000e+02,8.301881100000000515e+02
5.270000000000000000e+02,8.302479899999999589e+02
5.280000000000000000e+02,8.303079199999999673e+02
5.290000000000000000e+02,8.303667599999999993e+02
5.300000000000000000e+02,8.304257199999999557e+02
5.310000000000000000e+02,8.304855300000000398e+02
5.320000000000000000e+02,8.305426599999999553e+02
5.330000000000000000e+02,8.306003399999999601e+02
5.340000000000000000e+02,8.306567999999999756e+02
5.350000000000000000e+02,8.307131299999999783e+02
5.360000000000000000e+02,8.307689199999999801e+02
5.370000000000000000e+02,8.308239700000000312e+02
5.380000000000000000e+02,8.308805499999999711e+02
5.390000000000000000e+02,8.309342000000000326e+02
5.400000000000000000e+02,8.309885900000000447e+02
5.410000000000000000e+02,8.310415000000000418e+02
5.420000000000000000e+02,8.310947899999999890e+02
5.430000000000000000e+02,8.311469100000000481e+02
5.440000000000000000e+02,8.311988499999999931e+02
5.450000000000000000e+02,8.312521400000000540e+02
5.460000000000000000e+02,8.313026099999999587e+02
5.470000000000000000e+02,8.313536400000000413e+02
5.480000000000000000e+02,8.314038100000000213e+02
5.490000000000000000e+02,8.314537400000000389e+02
5.500000000000000000e+02,8.315028700000000299e+02
5.510000000000000000e+02,8.315519399999999450e+02
5.520000000000000000e+02,8.315997899999999845e+02
5.530000000000000000e+02,8.316499599999999646e+02
5.540000000000000000e+02,8.316969000000000278e+02
5.550000000000000000e+02,8.317448100000000295e+02
5.560000000000000000e+02,8.317911400000000413e+02
5.570000000000000000e+02,8.318379499999999780e+02
5.580000000000000000e+02,8.318835400000000391e+02
5.590000000000000000e+02,8.319292599999999993e+02
5.600000000000000000e+02,8.319743700000000217e+02
5.610000000000000000e+02,8.320190400000000182e+02
5.620000000000000000e+02,8.320652499999999918e+02
5.630000000000000000e+02,8.321088300000000118e+02
5.640000000000000000e+02,8.321528299999999945e+02
5.650000000000000000e+02,8.321958600000000388e+02
5.660000000000000000e+02,8.322388899999999694e+02
5.670000000000000000e+02,8.322812500000000000e+02
5.680000000000000000e+02,8.323234300000000303e+02
5.690000000000000000e+02,8.323652299999999968e+02
5.700000000000000000e+02,8.324063700000000381e+02
5.710000000000000000e+02,8.324492800000000443e+02
5.720000000000000000e+02,8.324893799999999828e+02
5.730000000000000000e+02,8.325302100000000110e+02
5.740000000000000000e+02,8.325697000000000116e+02
5.750000000000000000e+02,8.326097999999999502e+02
5.760000000000000000e+02,8.326488000000000511e+02
5.770000000000000000e+02,8.326878699999999753e+02
5.780000000000000000e+02,8.327263799999999492e+02
5.790000000000000000e+02,8.327647100000000364e+02
5.800000000000000000e+02,8.328022499999999582e+02
5.810000000000000000e+02,8.328419800000000350e+02
5.820000000000000000e+02,8.328782999999999674e+02
5.830000000000000000e+02,8.329159499999999525e+02
5.840000000000000000e+02,8.329521499999999605e+02
5.850000000000000000e+02,8.329887700000000450e+02
5.860000000000000000e+02,8.330244099999999889e+02
5.870000000000000000e+02,8.330603599999999460e+02
5.880000000000000000e+02,8.330954600000000028e+02
5.890000000000000000e+02,8.331306799999999839e+02
5.900000000000000000e+02,8.331651600000000144e+02
5.910000000000000000e+02,8.332014199999999846e+02
5.920000000000000000e+02,8.332347399999999880e+02
5.930000000000000000e+02,8.332692899999999554e+02
5.940000000000000000e+02,8.333023699999999963e+02
5.950000000000000000e+02,8.333359400000000505e+02
5.960000000000000000e+02,8.333687099999999646e+02
5.970000000000000000e+02,8.334016100000000051e+02
5.980000000000000000e+02,8.334337199999999939e+02
5.990000000000000000e+02,8.334660599999999704e+02