# Time [s], Temperature [C]
1.000000000000000000e+00,2.500000000000000000e+01
2.000000000000000000e+00,2.500000000000000000e+01
3.000000000000000000e+00,2.500000000000000000e+01
4.000000000000000000e+00,2.500000000000000000e+01
5.000000000000000000e+00,2.500000199999999850e+01
6.000000000000000000e+00,2.500001100000000065e+01
7.000000000000000000e+00,2.500005099999999914e+01
8.000000000000000000e+00,2.500018899999999888e+01
9.000000000000000000e+00,2.500057800000000086e+01
1.000000000000000000e+01,2.500154500000000013e+01
1.100000000000000000e+01,2.500366999999999962e+01
1.200000000000000000e+01,2.500788500000000170e+01
1.300000000000000000e+01,2.501553699999999836e+01
1.400000000000000000e+01,2.502842899999999915e+01
1.500000000000000000e+01,2.504880299999999949e+01
1.600000000000000000e+01,2.507929999999999993e+01
1.700000000000000000e+01,2.512288099999999957e+01
1.800000000000000000e+01,2.518273900000000154e+01
1.900000000000000000e+01,2.526221500000000120e+01
2.000000000000000000e+01,2.536468500000000148e+01
2.100000000000000000e+01,2.549350899999999953e+01
2.200000000000000000e+01,2.565194299999999927e+01
2.300000000000000000e+01,2.584309599999999918e+01
2.400000000000000000e+01,2.606985999999999848e+01
2.500000000000000000e+01,2.633491300000000024e+01
2.600000000000000000e+01,2.664070900000000108e+01
2.700000000000000000e+01,2.698936499999999938e+01
2.800000000000000000e+01,2.738279299999999949e+01
2.900000000000000000e+01,2.782267200000000074e+01
3.000000000000000000e+01,2.831041700000000105e+01
3.100000000000000000e+01,2.884706500000000062e+01
3.200000000000000000e+01,2.943358200000000124e+01
3.300000000000000000e+01,3.007058899999999824e+01
3.400000000000000000e+01,3.075857900000000100e+01
3.500000000000000000e+01,3.149787099999999995e+01
3.600000000000000000e+01,3.228854400000000169e+01
3.700000000000000000e+01,3.313051200000000307e+01
3.800000000000000000e+01,3.402351399999999870e+01
3.900000000000000000e+01,3.496725500000000153e+01
4.000000000000000000e+01,3.596138400000000246e+01
4.100000000000000000e+01,3.700525300000000328e+01
4.200000000000000000e+01,3.809826300000000288e+01
4.300000000000000000e+01,3.923953600000000108e+01
4.400000000000000000e+01,4.042831400000000031e+01
4.500000000000000000e+01,4.166367000000000331e+01
4.600000000000000000e+01,4.294468700000000183e+01
4.700000000000000000e+01,4.427046599999999899e+01
4.800000000000000000e+01,4.563988100000000259e+01
4.900000000000000000e+01,4.705182599999999837e+01
5.000000000000000000e+01,4.850511199999999690e+01
5.100000000000000000e+01,4.999866099999999847e+01
5.200000000000000000e+01,5.153140599999999694e+01
5.300000000000000000e+01,5.310206199999999654e+01
5.400000000000000000e+01,5.470937299999999937e+01
5.500000000000000000e+01,5.635215399999999875e+01
5.600000000000000000e+01,5.802912100000000351e+01
5.700000000000000000e+01,5.973893400000000042e+01
5.800000000000000000e+01,6.148060999999999865e+01
5.900000000000000000e+01,6.325281900000000235e+01
6.000000000000000000e+01,6.505402399999999830e+01
6.100000000000000000e+01,6.688327800000000423e+01
6.200000000000000000e+01,6.873920400000000086e+01
6.300000000000000000e+01,7.062046100000000592e+01
6.400000000000000000e+01,7.252596300000000440e+01
6.500000000000000000e+01,7.445445999999999742e+01
6.600000000000000000e+01,7.640482299999999327e+01
6.700000000000000000e+01,7.837575499999999806e+01
6.800000000000000000e+01,8.036611899999999764e+01
6.900000000000000000e+01,8.237479399999999430e+01
7.000000000000000000e+01,8.440064200000000483e+01
7.100000000000000000e+01,8.644261899999999343e+01
7.200000000000000000e+01,8.849968699999999444e+01
7.300000000000000000e+01,9.057076299999999947e+01
7.400000000000000000e+01,9.265484600000000626e+01
7.500000000000000000e+01,9.475130500000000211e+01
7.600000000000000000e+01,9.685879500000000064e+01
7.700000000000000000e+01,9.897653200000000595e+01
7.800000000000000000e+01,1.011037900000000036e+02
7.900000000000000000e+01,1.032400300000000044e+02
8.000000000000000000e+01,1.053839200000000034e+02
8.100000000000000000e+01,1.075351600000000047e+02
8.200000000000000000e+01,1.096929099999999977e+02
8.300000000000000000e+01,1.118562600000000060e+02
8.400000000000000000e+01,1.140251200000000011e+02
8.500000000000000000e+01,1.161984000000000066e+02
8.600000000000000000e+01,1.183758499999999998e+02
8.700000000000000000e+01,1.205567499999999939e+02
8.800000000000000000e+01,1.227404300000000035e+02
8.900000000000000000e+01,1.249268299999999954e+02
9.000000000000000000e+01,1.271150300000000044e+02
9.100000000000000000e+01,1.293049599999999941e+02
9.200000000000000000e+01,1.314957599999999900e+02
9.300000000000000000e+01,1.336873799999999903e+02
9.400000000000000000e+01,1.358789500000000032e+02
9.500000000000000000e+01,1.380706000000000131e+02
9.600000000000000000e+01,1.402614700000000028e+02
9.700000000000000000e+01,1.424516099999999881e+02
9.800000000000000000e+01,1.446402899999999931e+02
9.900000000000000000e+01,1.468275500000000022e+02
1.000000000000000000e+02,1.490126500000000078e+02
1.010000000000000000e+02,1.511956900000000132e+02
1.020000000000000000e+02,1.533759900000000016e+02
1.030000000000000000e+02,1.555532800000000009e+02
1.040000000000000000e+02,1.577277100000000019e+02
1.050000000000000000e+02,1.598986199999999940e+02
1.060000000000000000e+02,1.620661599999999964e+02
1.070000000000000000e+02,1.642296900000000051e+02
1.080000000000000000e+02,1.663892999999999915e+02
1.090000000000000000e+02,1.685444500000000119e+02
1.100000000000000000e+02,1.706950999999999965e+02
1.110000000000000000e+02,1.728412600000000054e+02
1.120000000000000000e+02,1.749823900000000094e+02
1.130000000000000000e+02,1.771183800000000019e+02
1.140000000000000000e+02,1.792492499999999893e+02
1.150000000000000000e+02,1.813746500000000026e+02
1.160000000000000000e+02,1.834944299999999942e+02
1.170000000000000000e+02,1.856085799999999892e+02
1.180000000000000000e+02,1.877165500000000122e+02
1.190000000000000000e+02,1.898184100000000001e+02
1.200000000000000000e+02,1.919141700000000128e+02
1.210000000000000000e+02,1.940034799999999962e+02
1.220000000000000000e+02,1.960863500000000101e+02
1.230000000000000000e+02,1.981624300000000005e+02
1.240000000000000000e+02,2.002316700000000083e+02
1.250000000000000000e+02,2.022940700000000049e+02
1.260000000000000000e+02,2.043493300000000090e+02
1.270000000000000000e+02,2.063975199999999859e+02
1.280000000000000000e+02,2.084386399999999924e+02
1.290000000000000000e+02,2.104723099999999931e+02
1.300000000000000000e+02,2.124984599999999944e+02
1.310000000000000000e+02,2.145170300000000054e+02
1.320000000000000000e+02,2.165279099999999914e+02
1.330000000000000000e+02,2.185310100000000091e+02
1.340000000000000000e+02,2.205262899999999888e+02
1.350000000000000000e+02,2.225135500000000093e+02
1.360000000000000000e+02,2.244926800000000071e+02
1.370000000000000000e+02,2.264637299999999982e+02
1.380000000000000000e+02,2.284264699999999948e+02
1.390000000000000000e+02,2.303810100000000034e+02
1.400000000000000000e+02,2.323271799999999985e+02
1.410000000000000000e+02,2.342648299999999892e+02
1.420000000000000000e+02,2.361938900000000103e+02
1.430000000000000000e+02,2.381142299999999921e+02
1.440000000000000000e+02,2.400258300000000133e+02
1.450000000000000000e+02,2.419286199999999951e+02
1.460000000000000000e+02,2.438225400000000036e+02
1.470000000000000000e+02,2.457075299999999913e+02
1.480000000000000000e+02,2.475832699999999988e+02
1.490000000000000000e+02,2.494500099999999918e+02
1.500000000000000000e+02,2.513076299999999890e+02
1.510000000000000000e+02,2.531557200000000023e+02
1.520000000000000000e+02,2.549945999999999913e+02
1.530000000000000000e+02,2.568238799999999742e+02
1.540000000000000000e+02,2.586437999999999988e+02
1.550000000000000000e+02,2.604541600000000017e+02
1.560000000000000000e+02,2.622547299999999950e+02
1.570000000000000000e+02,2.640455900000000042e+02
1.580000000000000000e+02,2.658267200000000230e+02
1.590000000000000000e+02,2.675979600000000005e+02
1.600000000000000000e+02,2.693592199999999934e+02
1.610000000000000000e+02,2.711104399999999828e+02
1.620000000000000000e+02,2.728517200000000003e+02
1.630000000000000000e+02,2.745825500000000261e+02
1.640000000000000000e+02,2.763030400000000100e+02
1.650000000000000000e+02,2.780132399999999961e+02
1.660000000000000000e+02,2.797130700000000161e+02
1.670000000000000000e+02,2.814022199999999998e+02
1.680000000000000000e+02,2.830806299999999851e+02
1.690000000000000000e+02,2.847481999999999971e+02
1.700000000000000000e+02,2.864048500000000104e+02
1.710000000000000000e+02,2.880506899999999746e+02
1.720000000000000000e+02,2.896853300000000218e+02
1.730000000000000000e+02,2.913086500000000001e+02
1.740000000000000000e+02,2.929205600000000231e+02
1.750000000000000000e+02,2.945208400000000211e+02
1.760000000000000000e+02,2.961094100000000253e+02
1.770000000000000000e+02,2.976861299999999915e+02
1.780000000000000000e+02,2.992508500000000140e+02
1.790000000000000000e+02,3.008033399999999915e+02
1.800000000000000000e+02,3.023435999999999808e+02
1.810000000000000000e+02,3.038713399999999751e+02
1.820000000000000000e+02,3.053862599999999929e+02
1.830000000000000000e+02,3.068882100000000150e+02
1.840000000000000000e+02,3.083770099999999843e+02
1.850000000000000000e+02,3.098525700000000143e+02
1.860000000000000000e+02,3.113146399999999971e+02
1.870000000000000000e+02,3.127628199999999765e+02
1.880000000000000000e+02,3.141971399999999903e+02
1.890000000000000000e+02,3.156172500000000127e+02
1.900000000000000000e+02,3.170229499999999803e+02
1.910000000000000000e+02,3.184139999999999873e+02
1.920000000000000000e+02,3.197900999999999954e+02
1.930000000000000000e+02,3.211510900000000106e+02
1.940000000000000000e+02,3.224969199999999887e+02
1.950000000000000000e+02,3.238270299999999793e+02
1.960000000000000000e+02,3.251413600000000201e+02
1.970000000000000000e+02,3.264396699999999782e+02
1.980000000000000000e+02,3.277216500000000110e+02
1.990000000000000000e+02,3.289871200000000044e+02
2.000000000000000000e+02,3.302358699999999772e+02
2.010000000000000000e+02,3.314676799999999730e+02
2.020000000000000000e+02,3.326822799999999916e+02
2.030000000000000000e+02,3.338795499999999947e+02
2.040000000000000000e+02,3.350592300000000137e+02
2.050000000000000000e+02,3.362211300000000165e+02
2.060000000000000000e+02,3.373651699999999778e+02
2.070000000000000000e+02,3.384911799999999857e+02
2.080000000000000000e+02,3.395990899999999897e+02
2.090000000000000000e+02,3.406886900000000082e+02
2.100000000000000000e+02,3.417598300000000222e+02
2.110000000000000000e+02,3.428125000000000000e+02
2.120000000000000000e+02,3.438466199999999731e+02
2.130000000000000000e+02,3.448622399999999857e+02
2.140000000000000000e+02,3.458592800000000125e+02
2.150000000000000000e+02,3.468377699999999777e+02
2.160000000000000000e+02,3.477976400000000012e+02
2.170000000000000000e+02,3.487391700000000014e+02
2.180000000000000000e+02,3.496623200000000224e+02
2.190000000000000000e+02,3.505671399999999949e+02
2.200000000000000000e+02,3.514539500000000203e+02
2.210000000000000000e+02,3.523229099999999789e+02
2.220000000000000000e+02,3.531741000000000099e+02
2.230000000000000000e+02,3.540078700000000254e+02
2.240000000000000000e+02,3.548244000000000256e+02
2.250000000000000000e+02,3.556239899999999921e+02
2.260000000000000000e+02,3.564070100000000139e+02
2.270000000000000000e+02,3.571737699999999904e+02
2.280000000000000000e+02,3.579245900000000233e+02
2.290000000000000000e+02,3.586598799999999869e+02
2.300000000000000000e+02,3.593800400000000081e+02
2.310000000000000000e+02,3.600855099999999993e+02
2.320000000000000000e+02,3.607767900000000054e+02
2.330000000000000000e+02,3.614543800000000147e+02
2.340000000000000000e+02,3.621186500000000024e+02
2.350000000000000000e+02,3.627699900000000071e+02
2.360000000000000000e+02,3.634091799999999921e+02
2.370000000000000000e+02,3.640365600000000086e+02
2.380000000000000000e+02,3.646525599999999940e+02
2.390000000000000000e+02,3.652579299999999876e+02
2.400000000000000000e+02,3.658530000000000086e+02
2.410000000000000000e+02,3.664385399999999890e+02
2.420000000000000000e+02,3.670148300000000177e+02
2.430000000000000000e+02,3.675826700000000073e+02
2.440000000000000000e+02,3.681423599999999965e+02
2.450000000000000000e+02,3.686946100000000115e+02
2.460000000000000000e+02,3.692398699999999963e+02
2.470000000000000000e+02,3.697786300000000210e+02
2.480000000000000000e+02,3.703114899999999921e+02
2.490000000000000000e+02,3.708389599999999859e+02
2.500000000000000000e+02,3.713614499999999907e+02
2.510000000000000000e+02,3.718795799999999758e+02
2.520000000000000000e+02,3.723938299999999799e+02
2.530000000000000000e+02,3.729046000000000163e+02
2.540000000000000000e+02,3.734125099999999975e+02
2.550000000000000000e+02,3.739178800000000251e+02
2.560000000000000000e+02,3.744211399999999799e+02
2.570000000000000000e+02,3.749229100000000017e+02
2.580000000000000000e+02,3.754235199999999963e+02
2.590000000000000000e+02,3.759234000000000151e+02
2.600000000000000000e+02,3.764229100000000017e+02
2.610000000000000000e+02,3.769226100000000201e+02
2.620000000000000000e+02,3.774228200000000015e+02
2.630000000000000000e+02,3.779238599999999906e+02
2.640000000000000000e+02,3.784261799999999880e+02
2.650000000000000000e+02,3.789302400000000262e+02
2.660000000000000000e+02,3.794362199999999916e+02
2.670000000000000000e+02,3.799446100000000115e+02
2.680000000000000000e+02,3.804557800000000043e+02
2.690000000000000000e+02,3.809700300000000084e+02
2.700000000000000000e+02,3.814876399999999990e+02
2.710000000000000000e+02,3.820090900000000147e+02
2.720000000000000000e+02,3.825345800000000054e+02
2.730000000000000000e+02,3.830644800000000032e+02
2.740000000000000000e+02,3.835993000000000279e+02
2.750000000000000000e+02,3.841390999999999849e+02
2.760000000000000000e+02,3.846841999999999757e+02
2.770000000000000000e+02,3.852352300000000014e+02
2.780000000000000000e+02,3.857922399999999925e+02
2.790000000000000000e+02,3.863557400000000257e+02
2.800000000000000000e+02,3.869259299999999939e+02
2.810000000000000000e+02,3.875031999999999925e+02
2.820000000000000000e+02,3.880880099999999970e+02
2.830000000000000000e+02,3.886804500000000075e+02
2.840000000000000000e+02,3.892811300000000188e+02
2.850000000000000000e+02,3.898902600000000120e+02
2.860000000000000000e+02,3.905081799999999816e+02
2.870000000000000000e+02,3.911354099999999789e+02
2.880000000000000000e+02,3.917721300000000042e+02
2.890000000000000000e+02,3.924188199999999824e+02
2.900000000000000000e+02,3.930761400000000094e+02
2.910000000000000000e+02,3.937441400000000158e+02
2.920000000000000000e+02,3.944233699999999772e+02
2.930000000000000000e+02,3.951143799999999828e+02
2.940000000000000000e+02,3.958176300000000083e+02
2.950000000000000000e+02,3.965333600000000160e+02
2.960000000000000000e+02,3.972622099999999818e+02
2.970000000000000000e+02,3.980047599999999761e+02
2.980000000000000000e+02,3.987614100000000121e+02
2.990000000000000000e+02,3.995327800000000025e+02
3.000000000000000000e+02,4.003193999999999733e+02
3.010000000000000000e+02,4.011218600000000265e+02
3.020000000000000000e+02,4.019408000000000243e+02
3.030000000000000000e+02,4.027767600000000243e+02
3.040000000000000000e+02,4.036305199999999900e+02
3.050000000000000000e+02,4.045026899999999728e+02
3.060000000000000000e+02,4.053940400000000182e+02
3.070000000000000000e+02,4.063052099999999882e+02
3.080000000000000000e+02,4.072369400000000041e+02
3.090000000000000000e+02,4.081899099999999976e+02
3.100000000000000000e+02,4.091648900000000140e+02
3.110000000000000000e+02,4.101627199999999789e+02
3.120000000000000000e+02,4.111841999999999757e+02
3.130000000000000000e+02,4.122303499999999872e+02
3.140000000000000000e+02,4.133015399999999886e+02
3.150000000000000000e+02,4.143987700000000132e+02
3.160000000000000000e+02,4.155229199999999992e+02
3.170000000000000000e+02,4.166743799999999851e+02
3.180000000000000000e+02,4.178541599999999789e+02
3.190000000000000000e+02,4.190628399999999942e+02
3.200000000000000000e+02,4.203008100000000127e+02
3.210000000000000000e+02,4.215686000000000035e+02
3.220000000000000000e+02,4.228666999999999803e+02
3.230000000000000000e+02,4.241949500000000057e+02
3.240000000000000000e+02,4.255534999999999854e+02
3.250000000000000000e+02,4.269424099999999953e+02
3.260000000000000000e+02,4.283606300000000147e+02
3.270000000000000000e+02,4.298075000000000045e+02
3.280000000000000000e+02,4.312820699999999761e+02
3.290000000000000000e+02,4.327827800000000025e+02
3.300000000000000000e+02,4.343074300000000108e+02
3.310000000000000000e+02,4.358540300000000229e+02
3.320000000000000000e+02,4.374195599999999899e+02
3.330000000000000000e+02,4.390007899999999950e+02
3.340000000000000000e+02,4.405942400000000134e+02
3.350000000000000000e+02,4.421957699999999818e+02
3.360000000000000000e+02,4.438013300000000072e+02
3.370000000000000000e+02,4.454068899999999758e+02
3.380000000000000000e+02,4.470080600000000004e+02
3.390000000000000000e+02,4.486008600000000115e+02
3.400000000000000000e+02,4.501816699999999969e+02
3.410000000000000000e+02,4.517474700000000212e+02
3.420000000000000000e+02,4.532956500000000233e+02
3.430000000000000000e+02,4.548244000000000256e+02
3.440000000000000000e+02,4.563326400000000262e+02
3.450000000000000000e+02,4.578199500000000057e+02
3.460000000000000000e+02,4.592863500000000272e+02
3.470000000000000000e+02,4.607323000000000093e+02
3.480000000000000000e+02,4.621587799999999788e+02
3.490000000000000000e+02,4.635666200000000003e+02
3.500000000000000000e+02,4.649570600000000127e+02
3.510000000000000000e+02,4.663308999999999855e+02
3.520000000000000000e+02,4.676891800000000217e+02
3.530000000000000000e+02,4.690327100000000087e+02
3.540000000000000000e+02,4.703623000000000047e+02
3.550000000000000000e+02,4.716785899999999856e+02
3.560000000000000000e+02,4.729820900000000279e+02
3.570000000000000000e+02,4.742733200000000124e+02
3.580000000000000000e+02,4.755527999999999906e+02
3.590000000000000000e+02,4.768209200000000010e+02
3.600000000000000000e+02,4.780780899999999747e+02
3.610000000000000000e+02,4.793245200000000068e+02
3.620000000000000000e+02,4.805606399999999780e+02
3.630000000000000000e+02,4.817867400000000089e+02
3.640000000000000000e+02,4.830030499999999734e+02
3.650000000000000000e+02,4.842099000000000046e+02
3.660000000000000000e+02,4.854074400000000082e+02
3.670000000000000000e+02,4.865959799999999973e+02
3.680000000000000000e+02,4.877756299999999783e+02
3.690000000000000000e+02,4.889466899999999896e+02
3.700000000000000000e+02,4.901092199999999934e+02
3.710000000000000000e+02,4.912634300000000280e+02
3.720000000000000000e+02,4.924094799999999736e+02
3.730000000000000000e+02,4.935476400000000012e+02
3.740000000000000000e+02,4.946780400000000100e+02
3.750000000000000000e+02,4.958007200000000125e+02
3.760000000000000000e+02,4.969158300000000281e+02
3.770000000000000000e+02,4.980235599999999749e+02
3.780000000000000000e+02,4.991239899999999921e+02
3.790000000000000000e+02,5.002172199999999975e+02
3.800000000000000000e+02,5.013034099999999853e+02
3.810000000000000000e+02,5.023826000000000249e+02
3.820000000000000000e+02,5.034549900000000093e+02
3.830000000000000000e+02,5.045206000000000017e+02
3.840000000000000000e+02,5.055795600000000150e+02
3.850000000000000000e+02,5.066319899999999734e+02
3.860000000000000000e+02,5.076779500000000098e+02
3.870000000000000000e+02,5.087174099999999726e+02
3.880000000000000000e+02,5.097506700000000137e+02
3.890000000000000000e+02,5.107776499999999942e+02
3.900000000000000000e+02,5.117985199999999963e+02
3.910000000000000000e+02,5.128132900000000518e+02
3.920000000000000000e+02,5.138220199999999522e+02
3.930000000000000000e+02,5.148247699999999440e+02
3.940000000000000000e+02,5.158215900000000147e+02
3.950000000000000000e+02,5.168126800000000003e+02
3.960000000000000000e+02,5.177979100000000017e+02
3.970000000000000000e+02,5.187775299999999561e+02
3.980000000000000000e+02,5.197515300000000025e+02
3.990000000000000000e+02,5.207199100000000271e+02
4.000000000000000000e+02,5.216828000000000429e+02
4.010000000000000000e+02,5.226402000000000498e+02
4.020000000000000000e+02,5.235921600000000353e+02
4.030000000000000000e+02,5.245387600000000248e+02
4.040000000000000000e+02,5.254799799999999550e+02
4.050000000000000000e+02,5.264160200000000032e+02
4.060000000000000000e+02,5.273467399999999543e+02
4.070000000000000000e+02,5.282722800000000234e+02
4.080000000000000000e+02,5.291926300000000083e+02
4.090000000000000000e+02,5.301079700000000230e+02
4.100000000000000000e+02,5.310182499999999663e+02
4.110000000000000000e+02,5.319234599999999773e+02
4.120000000000000000e+02,5.328236699999999928e+02
4.130000000000000000e+02,5.337188700000000381e+02
4.140000000000000000e+02,5.346092499999999745e+02
4.150000000000000000e+02,5.354947499999999536e+02
4.160000000000000000e+02,5.363753699999999753e+02
4.170000000000000000e+02,5.372512199999999893e+02
4.180000000000000000e+02,5.381222500000000082e+02
4.190000000000000000e+02,5.389885900000000447e+02
4.200000000000000000e+02,5.398502200000000357e+02
4.210000000000000000e+02,5.407072100000000319e+02
4.220000000000000000e+02,5.415595100000000457e+02
4.230000000000000000e+02,5.424072899999999890e+02
4.240000000000000000e+02,5.432503699999999753e+02
4.250000000000000000e+02,5.440889899999999670e+02
4.260000000000000000e+02,5.449230300000000398e+02
4.270000000000000000e+02,5.457526199999999790e+02
4.280000000000000000e+02,5.465777600000000120e+02
4.290000000000000000e+02,5.473984400000000505e+02
4.300000000000000000e+02,5.482147200000000566e+02
4.310000000000000000e+02,5.490266699999999673e+02
4.320000000000000000e+02,5.498342300000000478e+02
4.330000000000000000e+02,5.506374499999999443e+02
4.340000000000000000e+02,5.514364000000000487e+02
4.350000000000000000e+02,5.522310800000000199e+02
4.360000000000000000e+02,5.530215500000000475e+02
4.370000000000000000e+02,5.538077399999999670e+02
4.380000000000000000e+02,5.545897800000000188e+02
4.390000000000000000e+02,5.553676100000000133e+02
4.400000000000000000e+02,5.561412400000000389e+02
4.410000000000000000e+02,5.569107699999999568e+02
4.420000000000000000e+02,5.576762099999999691e+02
4.430000000000000000e+02,5.584376200000000381e+02
4.440000000000000000e+02,5.591948899999999867e+02
4.450000000000000000e+02,5.599481200000000172e+02
4.460000000000000000e+02,5.606973299999999654e+02
4.470000000000000000e+02,5.614425700000000461e+02
4.480000000000000000e+02,5.621838400000000320e+02
4.490000000000000000e+02,5.629211999999999989e+02
4.500000000000000000e+02,5.636546600000000353e+02
4.510000000000000000e+02,5.643842200000000275e+02
4.520000000000000000e+02,5.651097399999999880e+02
4.530000000000000000e+02,5.658315400000000182e+02
4.540000000000000000e+02,5.665494400000000041e+02
4.550000000000000000e+02,5.672635500000000093e+02
4.560000000000000000e+02,5.679738200000000461e+02
4.570000000000000000e+02,5.686802999999999884e+02
4.580000000000000000e+02,5.693830600000000004e+02
4.590000000000000000e+02,5.700820300000000316e+02
4.600000000000000000e+02,5.707772800000000188e+02
4.610000000000000000e+02,5.714688099999999622e+02
4.620000000000000000e+02,5.721567400000000134e+02
4.630000000000000000e+02,5.728409400000000460e+02
4.640000000000000000e+02,5.735214799999999968e+02
4.650000000000000000e+02,5.741984300000000303e+02
4.660000000000000000e+02,5.748718300000000454e+02
4.670000000000000000e+02,5.755415000000000418e+02
4.680000000000000000e+02,5.762077000000000453e+02
4.690000000000000000e+02,5.768703000000000429e+02
4.700000000000000000e+02,5.775293599999999969e+02
4.710000000000000000e+02,5.781849399999999832e+02
4.720000000000000000e+02,5.788369800000000396e+02
4.730000000000000000e+02,5.794855300000000398e+02
4.740000000000000000e+02,5.801306799999999839e+02
4.750000000000000000e+02,5.807723399999999856e+02
4.760000000000000000e+02,5.814105799999999817e+02
4.770000000000000000e+02,5.820454099999999471e+02
4.780000000000000000e+02,5.826768200000000206e+02
4.790000000000000000e+02,5.833048700000000508e+02
4.800000000000000000e+02,5.839294999999999618e+02
4.810000000000000000e+02,5.845508999999999560e+02
4.820000000000000000e+02,5.851689499999999953e+02
4.830000000000000000e+02,5.857836300000000165e+02
4.840000000000000000e+02,5.863950800000000072e+02
4.850000000000000000e+02,5.870032300000000305e+02
4.860000000000000000e+02,5.876081500000000233e+02
4.870000000000000000e+02,5.882097800000000234e+02
4.880000000000000000e+02,5.888082299999999805e+02
4.890000000000000000e+02,5.894034400000000460e+02
4.900000000000000000e+02,5.899954800000000432e+02
4.910000000000000000e+02,5.905843499999999722e+02
4.920000000000000000e+02,5.911700399999999718e+02
4.930000000000000000e+02,5.917525600000000168e+02
4.940000000000000000e+02,5.923319699999999557e+02
4.950000000000000000e+02,5.929083299999999781e+02
4.960000000000000000e+02,5.934815099999999575e+02
4.970000000000000000e+02,5.940516400000000203e+02
4.980000000000000000e+02,5.946187099999999646e+02
4.990000000000000000e+02,5.951827399999999670e+02
5.000000000000000000e+02,5.957437099999999646e+02
5.010000000000000000e+02,5.963016400000000203e+02
5.020000000000000000e+02,5.968566299999999956e+02
5.030000000000000000e+02,5.974085700000000543e+02
5.040000000000000000e+02,5.979575800000000072e+02
5.050000000000000000e+02,5.985036000000000058e+02
5.060000000000000000e+02,5.990466900000000123e+02
5.070000000000000000e+02,5.995868500000000267e+02
5.080000000000000000e+02,6.001241499999999860e+02
5.090000000000000000e+02,6.006584500000000162e+02
5.100000000000000000e+02,6.011899399999999787e+02
5.110000000000000000e+02,6.017185699999999997e+02
5.120000000000000000e+02,6.022442600000000539e+02
5.130000000000000000e+02,6.027672099999999773e+02
5.140000000000000000e+02,6.032872899999999845e+02
5.150000000000000000e+02,6.038044999999999618e+02
5.160000000000000000e+02,6.043189700000000357e+02
5.170000000000000000e+02,6.048306900000000041e+02
5.180000000000000000e+02,6.053396000000000186e+02
5.190000000000000000e+02,6.058457600000000411e+02
5.200000000000000000e+02,6.063491800000000467e+02
5.210000000000000000e+02,6.068498499999999467e+02
5.220000000000000000e+02,6.073478400000000192e+02
5.230000000000000000e+02,6.078431399999999485e+02
5.240000000000000000e+02,6.083357499999999618e+02
5.250000000000000000e+02,6.088256800000000339e+02
5.260000000000000000e+02,6.093129300000000512e+02
5.270000000000000000e+02,6.097975500000000011e+02
5.280000000000000000e+02,6.102795399999999972e+02
5.290000000000000000e+02,6.107589100000000144e+02
5.300000000000000000e+02,6.112357200000000148e+02
5.310000000000000000e+02,6.117098999999999478e+02
5.320000000000000000e+02,6.121815199999999777e+02
5.330000000000000000e+02,6.126505100000000539e+02
5.340000000000000000e+02,6.131169999999999618e+02
5.350000000000000000e+02,6.135809299999999666e+02
5.360000000000000000e+02,6.140423600000000306e+02
5.370000000000000000e+02,6.145012799999999515e+02
5.380000000000000000e+02,6.149577000000000453e+02
5.390000000000000000e+02,6.154116800000000467e+02
5.400000000000000000e+02,6.158631000000000313e+02
5.410000000000000000e+02,6.163121300000000247e+02
5.420000000000000000e+02,6.167587300000000141e+02
5.430000000000000000e+02,6.172028199999999742e+02
5.440000000000000000e+02,6.176445300000000316e+02
5.450000000000000000e+02,6.180837999999999965e+02
5.460000000000000000e+02,6.185206899999999450e+02
5.470000000000000000e+02,6.189551999999999907e+02
5.480000000000000000e+02,6.193873300000000199e+02
5.490000000000000000e+02,6.198170800000000327e+02
5.500000000000000000e+02,6.202445099999999911e+02
5.510000000000000000e+02,6.206695600000000468e+02
5.520000000000000000e+02,6.210922900000000482e+02
5.530000000000000000e+02,6.215127599999999575e+02
5.540000000000000000e+02,6.219309100000000399e+02
5.550000000000000000e+02,6.223467399999999543e+02
5.560000000000000000e+02,6.227603800000000547e+02
5.570000000000000000e+02,6.231716900000000123e+02
5.580000000000000000e+02,6.235807499999999663e+02
5.590000000000000000e+02,6.239876100000000179e+02
5.600000000000000000e+02,6.243922099999999773e+02
5.610000000000000000e+02,6.247945600000000468e+02
5.620000000000000000e+02,6.251947599999999738e+02
5.630000000000000000e+02,6.255927699999999732e+02
5.640000000000000000e+02,6.259885900000000447e+02
5.650000000000000000e+02,6.263822000000000116e+02
5.660000000000000000e+02,6.267736800000000130e+02
5.670000000000000000e+02,6.271630199999999604e+02
5.680000000000000000e+02,6.275502300000000560e+02
5.690000000000000000e+02,6.279352999999999838e+02
5.700000000000000000e+02,6.283182399999999461e+02
5.710000000000000000e+02,6.286991000000000440e+02
5.720000000000000000e+02,6.290778199999999742e+02
5.730000000000000000e+02,6.294545299999999770e+02
5.740000000000000000e+02,6.298291000000000395e+02
5.750000000000000000e+02,6.302016599999999471e+02
5.760000000000000000e+02,6.305721399999999903e+02
5.770000000000000000e+02,6.309406099999999924e+02
5.780000000000000000e+02,6.313070099999999911e+02
5.790000000000000000e+02,6.316713899999999740e+02
5.800000000000000000e+02,6.320338100000000168e+02
5.810000000000000000e+02,6.323942299999999932e+02
5.820000000000000000e+02,6.327526199999999790e+02
5.830000000000000000e+02,6.331090699999999742e+02
5.840000000000000000e+02,6.334635600000000295e+02
5.850000000000000000e+02,6.338161000000000058e+02
5.860000000000000000e+02,6.341666300000000547e+02
5.870000000000000000e+02,6.345152600000000120e+02
5.880000000000000000e+02,6.348619999999999663e+02
5.890000000000000000e+02,6.352068500000000313e+02
5.900000000000000000e+02,6.355497400000000425e+02
5.910000000000000000e+02,6.358907500000000255e+02
5.920000000000000000e+02,6.362299199999999928e+02
5.930000000000000000e+02,6.365671399999999949e+02
5.940000000000000000e+02,6.369025299999999561e+02
5.950000000000000000e+02,6.372360800000000154e+02
5.960000000000000000e+02,6.375678100000000086e+02
5.970000000000000000e+02,6.378977099999999609e+02
5.980000000000000000e+02,6.382257100000000491e+02
5.990000000000000000e+02,6.385519399999999450e+02