# Time [s], Mass [Kg]
1.000000000000000000e+00,1.000000000000000000e+00
2.000000000000000000e+00,1.000000000000000000e+00
3.000000000000000000e+00,1.000000000000000000e+00
4.000000000000000000e+00,1.000000000000000000e+00
5.000000000000000000e+00,1.000000000000000000e+00
6.000000000000000000e+00,1.000000000000000000e+00
7.000000000000000000e+00,9.999999400000000316e-01
8.000000000000000000e+00,9.999997000000000469e-01
9.000000000000000000e+00,9.999985099999999516e-01
1.000000000000000000e+01,9.999942200000000447e-01
1.100000000000000000e+01,9.999809899999999585e-01
1.200000000000000000e+01,9.999465300000000001e-01
1.300000000000000000e+01,9.998688700000000207e-01
1.400000000000000000e+01,9.997121700000000111e-01
1.500000000000000000e+01,9.994243400000000221e-01
1.600000000000000000e+01,9.989403500000000324e-01
1.700000000000000000e+01,9.981948099999999879e-01
1.800000000000000000e+01,9.971426700000000087e-01
1.900000000000000000e+01,9.957793400000000128e-01
2.000000000000000000e+01,9.941469400000000345e-01
2.100000000000000000e+01,9.923244100000000456e-01
2.200000000000000000e+01,9.904152200000000406e-01
2.300000000000000000e+01,9.885360600000000497e-01
2.400000000000000000e+01,9.868106800000000511e-01
2.500000000000000000e+01,9.853548399999999541e-01
2.600000000000000000e+01,9.842311700000000441e-01
2.700000000000000000e+01,9.833733999999999531e-01
2.800000000000000000e+01,9.824112699999999476e-01
2.900000000000000000e+01,9.811934799999999512e-01
3.000000000000000000e+01,9.797648799999999492e-01
3.100000000000000000e+01,9.781892300000000207e-01
3.200000000000000000e+01,9.765387800000000507e-01
3.300000000000000000e+01,9.748873099999999514e-01
3.400000000000000000e+01,9.733054599999999557e-01
3.500000000000000000e+01,9.718548700000000373e-01
3.600000000000000000e+01,9.705780099999999910e-01
3.700000000000000000e+01,9.694816499999999726e-01
3.800000000000000000e+01,9.685171200000000091e-01
3.900000000000000000e+01,9.675767400000000462e-01
4.000000000000000000e+01,9.665393799999999480e-01
4.100000000000000000e+01,9.653606399999999921e-01
4.200000000000000000e+01,9.640709200000000534e-01
4.300000000000000000e+01,9.627078799999999603e-01
4.400000000000000000e+01,9.613114000000000381e-01
4.500000000000000000e+01,9.599214799999999936e-01
4.600000000000000000e+01,9.585751900000000214e-01
4.700000000000000000e+01,9.573038200000000275e-01
4.800000000000000000e+01,9.561279400000000095e-01
4.900000000000000000e+01,9.550527300000000164e-01
5.000000000000000000e+01,9.540630599999999628e-01
5.100000000000000000e+01,9.531216000000000133e-01
5.200000000000000000e+01,9.521774600000000310e-01
5.300000000000000000e+01,9.511841500000000060e-01
5.400000000000000000e+01,9.501190200000000363e-01
5.500000000000000000e+01,9.489870099999999642e-01
5.600000000000000000e+01,9.478082100000000398e-01
5.700000000000000000e+01,9.466047899999999737e-01
5.800000000000000000e+01,9.453986300000000176e-01
5.900000000000000000e+01,9.442099299999999751e-01
6.000000000000000000e+01,9.430568799999999863e-01
6.100000000000000000e+01,9.419524700000000417e-01
6.200000000000000000e+01,9.409037799999999674e-01
6.300000000000000000e+01,9.399096999999999591e-01
6.400000000000000000e+01,9.389600200000000063e-01
6.500000000000000000e+01,9.380360199999999704e-01
6.600000000000000000e+01,9.371140599999999710e-01
6.700000000000000000e+01,9.361712300000000209e-01
6.800000000000000000e+01,9.351920500000000525e-01
6.900000000000000000e+01,9.341720900000000105e-01
7.000000000000000000e+01,9.331166699999999814e-01
7.100000000000000000e+01,9.320370000000000044e-01
7.200000000000000000e+01,9.309460499999999694e-01
7.300000000000000000e+01,9.298563600000000484e-01
7.400000000000000000e+01,9.287793600000000538e-01
7.500000000000000000e+01,9.277242399999999778e-01
7.600000000000000000e+01,9.266975499999999810e-01
7.700000000000000000e+01,9.257022700000000492e-01
7.800000000000000000e+01,9.247368599999999939e-01
7.900000000000000000e+01,9.237955799999999495e-01
8.000000000000000000e+01,9.228686099999999781e-01
8.100000000000000000e+01,9.219436600000000537e-01
8.200000000000000000e+01,9.210081700000000149e-01
8.300000000000000000e+01,9.200522300000000264e-01
8.400000000000000000e+01,9.190703000000000067e-01
8.500000000000000000e+01,9.180624499999999744e-01
8.600000000000000000e+01,9.170329000000000397e-01
8.700000000000000000e+01,9.159887399999999680e-01
8.800000000000000000e+01,9.149380900000000372e-01
8.900000000000000000e+01,9.138888099999999959e-01
9.000000000000000000e+01,9.128475200000000234e-01
9.100000000000000000e+01,9.118192200000000414e-01
9.200000000000000000e+01,9.108068299999999562e-01
9.300000000000000000e+01,9.098109599999999464e-01
9.400000000000000000e+01,9.088293299999999908e-01
9.500000000000000000e+01,9.078572999999999782e-01
9.600000000000000000e+01,9.068882499999999514e-01
9.700000000000000000e+01,9.059146000000000143e-01
9.800000000000000000e+01,9.049291600000000102e-01
9.900000000000000000e+01,9.039262500000000422e-01
1.000000000000000000e+02,9.029029600000000322e-01
1.010000000000000000e+02,9.018593999999999777e-01
1.020000000000000000e+02,9.007986199999999943e-01
1.030000000000000000e+02,8.997252599999999711e-01
1.040000000000000000e+02,8.986447499999999922e-01
1.050000000000000000e+02,8.975623799999999930e-01
1.060000000000000000e+02,8.964822900000000150e-01
1.070000000000000000e+02,8.954073200000000066e-01
1.080000000000000000e+02,8.943387900000000501e-01
1.090000000000000000e+02,8.932760400000000489e-01
1.100000000000000000e+02,8.922166200000000158e-01
1.110000000000000000e+02,8.911566100000000157e-01
1.120000000000000000e+02,8.900911799999999818e-01
1.130000000000000000e+02,8.890150799999999576e-01
1.140000000000000000e+02,8.879238999999999882e-01
1.150000000000000000e+02,8.868147699999999745e-01
1.160000000000000000e+02,8.856866399999999695e-01
1.170000000000000000e+02,8.845405600000000312e-01
1.180000000000000000e+02,8.833790400000000043e-01
1.190000000000000000e+02,8.822057800000000505e-01
1.200000000000000000e+02,8.810242999999999824e-01
1.210000000000000000e+02,8.798377499999999740e-01
1.220000000000000000e+02,8.786481600000000114e-01
1.230000000000000000e+02,8.774562500000000487e-01
1.240000000000000000e+02,8.762612300000000021e-01
1.250000000000000000e+02,8.750610899999999859e-01
1.260000000000000000e+02,8.738526699999999980e-01
1.270000000000000000e+02,8.726322100000000193e-01
1.280000000000000000e+02,8.713960600000000278e-01
1.290000000000000000e+02,8.701412099999999983e-01
1.300000000000000000e+02,8.688657899999999712e-01
1.310000000000000000e+02,8.675693899999999958e-01
1.320000000000000000e+02,8.662530200000000402e-01
1.330000000000000000e+02,8.649184699999999948e-01
1.340000000000000000e+02,8.635680700000000209e-01
1.350000000000000000e+02,8.622039000000000231e-01
1.360000000000000000e+02,8.608273300000000017e-01
1.370000000000000000e+02,8.594385399999999731e-01
1.380000000000000000e+02,8.580369399999999702e-01
1.390000000000000000e+02,8.566204899999999567e-01
1.400000000000000000e+02,8.551867600000000458e-01
1.410000000000000000e+02,8.537328199999999478e-01
1.420000000000000000e+02,8.522560000000000136e-01
1.430000000000000000e+02,8.507543199999999528e-01
1.440000000000000000e+02,8.492267100000000513e-01
1.450000000000000000e+02,8.476731199999999466e-01
1.460000000000000000e+02,8.460944299999999529e-01
1.470000000000000000e+02,8.444920799999999783e-01
1.480000000000000000e+02,8.428675500000000209e-01
1.490000000000000000e+02,8.412220500000000545e-01
1.500000000000000000e+02,8.395561000000000274e-01
1.510000000000000000e+02,8.378693499999999572e-01
1.520000000000000000e+02,8.361609599999999531e-01
1.530000000000000000e+02,8.344296799999999514e-01
1.540000000000000000e+02,8.326742599999999994e-01
1.550000000000000000e+02,8.308938099999999549e-01
1.560000000000000000e+02,8.290880299999999758e-01
1.570000000000000000e+02,8.272576299999999661e-01
1.580000000000000000e+02,8.254038700000000395e-01
1.590000000000000000e+02,8.235287700000000211e-01
1.600000000000000000e+02,8.216345299999999741e-01
1.610000000000000000e+02,8.197232500000000144e-01
1.620000000000000000e+02,8.177968899999999985e-01
1.630000000000000000e+02,8.158567500000000194e-01
1.640000000000000000e+02,8.139039300000000532e-01
1.650000000000000000e+02,8.119391200000000142e-01
1.660000000000000000e+02,8.099632900000000024e-01
1.670000000000000000e+02,8.079775000000000151e-01
1.680000000000000000e+02,8.059832500000000399e-01
1.690000000000000000e+02,8.039825600000000128e-01
1.700000000000000000e+02,8.019777500000000447e-01
1.710000000000000000e+02,7.999713999999999992e-01
1.720000000000000000e+02,7.979660600000000326e-01
1.730000000000000000e+02,7.959639400000000364e-01
1.740000000000000000e+02,7.939669499999999491e-01
1.750000000000000000e+02,7.919766299999999593e-01
1.760000000000000000e+02,7.899944199999999750e-01
1.770000000000000000e+02,7.880213900000000438e-01
1.780000000000000000e+02,7.860588400000000364e-01
1.790000000000000000e+02,7.841082200000000224e-01
1.800000000000000000e+02,7.821710699999999683e-01
1.810000000000000000e+02,7.802490600000000498e-01
1.820000000000000000e+02,7.783439800000000464e-01
1.830000000000000000e+02,7.764574300000000040e-01
1.840000000000000000e+02,7.745909699999999898e-01
1.850000000000000000e+02,7.727457899999999880e-01
1.860000000000000000e+02,7.709229600000000460e-01
1.870000000000000000e+02,7.691235499999999892e-01
1.880000000000000000e+02,7.673484699999999492e-01
1.890000000000000000e+02,7.655988299999999525e-01
1.900000000000000000e+02,7.638758399999999726e-01
1.910000000000000000e+02,7.621808599999999601e-01
1.920000000000000000e+02,7.605153900000000133e-01
1.930000000000000000e+02,7.588807899999999718e-01
1.940000000000000000e+02,7.572786200000000134e-01
1.950000000000000000e+02,7.557102399999999776e-01
1.960000000000000000e+02,7.541772100000000423e-01
1.970000000000000000e+02,7.526810200000000339e-01
1.980000000000000000e+02,7.512233299999999669e-01
1.990000000000000000e+02,7.498059299999999538e-01
2.000000000000000000e+02,7.484309099999999493e-01
2.010000000000000000e+02,7.471004100000000481e-01
2.020000000000000000e+02,7.458168899999999546e-01
2.030000000000000000e+02,7.445830100000000451e-01
2.040000000000000000e+02,7.434013499999999608e-01
2.050000000000000000e+02,7.422748799999999703e-01
2.060000000000000000e+02,7.412067100000000464e-01
2.070000000000000000e+02,7.401999200000000112e-01
2.080000000000000000e+02,7.392581700000000478e-01
2.090000000000000000e+02,7.383848400000000423e-01
2.100000000000000000e+02,7.375836399999999848e-01
2.110000000000000000e+02,7.368580700000000316e-01
2.120000000000000000e+02,7.362113000000000129e-01
2.130000000000000000e+02,7.356459499999999929e-01
2.140000000000000000e+02,7.351636299999999569e-01
2.150000000000000000e+02,7.347645800000000005e-01
2.160000000000000000e+02,7.344469999999999610e-01
2.170000000000000000e+02,7.342065599999999526e-01
2.180000000000000000e+02,7.340359100000000137e-01
2.190000000000000000e+02,7.339246299999999668e-01
2.200000000000000000e+02,7.338595999999999453e-01
2.210000000000000000e+02,7.338269400000000386e-01
2.220000000000000000e+02,7.338135799999999653e-01
2.230000000000000000e+02,7.338094699999999637e-01
2.240000000000000000e+02,7.338087599999999489e-01
2.250000000000000000e+02,7.338086999999999804e-01
2.260000000000000000e+02,7.338086999999999804e-01
2.270000000000000000e+02,7.338086999999999804e-01
2.280000000000000000e+02,7.338086999999999804e-01
2.290000000000000000e+02,7.338086999999999804e-01
2.300000000000000000e+02,7.338086999999999804e-01
2.310000000000000000e+02,7.338086999999999804e-01
2.320000000000000000e+02,7.338086999999999804e-01
2.330000000000000000e+02,7.338086999999999804e-01
2.340000000000000000e+02,7.338086999999999804e-01
2.350000000000000000e+02,7.338086999999999804e-01
2.360000000000000000e+02,7.338086999999999804e-01
2.370000000000000000e+02,7.338086999999999804e-01
2.380000000000000000e+02,7.338086999999999804e-01
2.390000000000000000e+02,7.338086999999999804e-01
2.400000000000000000e+02,7.338086999999999804e-01
2.410000000000000000e+02,7.338086999999999804e-01
2.420000000000000000e+02,7.338086999999999804e-01
2.430000000000000000e+02,7.338086999999999804e-01
2.440000000000000000e+02,7.338086999999999804e-01
2.450000000000000000e+02,7.338086999999999804e-01
2.460000000000000000e+02,7.338086999999999804e-01
2.470000000000000000e+02,7.338086999999999804e-01
2.480000000000000000e+02,7.338086999999999804e-01
2.490000000000000000e+02,7.338086999999999804e-01
2.500000000000000000e+02,7.338086999999999804e-01
2.510000000000000000e+02,7.338086999999999804e-01
2.520000000000000000e+02,7.338086999999999804e-01
2.530000000000000000e+02,7.338086999999999804e-01
2.540000000000000000e+02,7.338086999999999804e-01
2.550000000000000000e+02,7.338086999999999804e-01
2.560000000000000000e+02,7.338086999999999804e-01
2.570000000000000000e+02,7.338086999999999804e-01
2.580000000000000000e+02,7.338086999999999804e-01
2.590000000000000000e+02,7.338086999999999804e-01
2.600000000000000000e+02,7.338086999999999804e-01
2.610000000000000000e+02,7.338086999999999804e-01
2.620000000000000000e+02,7.338086999999999804e-01
2.630000000000000000e+02,7.338086999999999804e-01
2.640000000000000000e+02,7.338086999999999804e-01
2.650000000000000000e+02,7.338086999999999804e-01
2.660000000000000000e+02,7.338086999999999804e-01
2.670000000000000000e+02,7.338086999999999804e-01
2.680000000000000000e+02,7.338086999999999804e-01
2.690000000000000000e+02,7.338086999999999804e-01
2.700000000000000000e+02,7.338086999999999804e-01
2.710000000000000000e+02,7.338086999999999804e-01
2.720000000000000000e+02,7.338086999999999804e-01
2.730000000000000000e+02,7.338086999999999804e-01
2.740000000000000000e+02,7.338086999999999804e-01
2.750000000000000000e+02,7.338086999999999804e-01
2.760000000000000000e+02,7.338086999999999804e-01
2.770000000000000000e+02,7.338086999999999804e-01
2.780000000000000000e+02,7.338086999999999804e-01
2.790000000000000000e+02,7.338086999999999804e-01
2.800000000000000000e+02,7.338086999999999804e-01
2.810000000000000000e+02,7.338086999999999804e-01
2.820000000000000000e+02,7.338086999999999804e-01
2.830000000000000000e+02,7.338086999999999804e-01
2.840000000000000000e+02,7.338086999999999804e-01
2.850000000000000000e+02,7.338086999999999804e-01
2.860000000000000000e+02,7.338086999999999804e-01
2.870000000000000000e+02,7.338086999999999804e-01
2.880000000000000000e+02,7.338086999999999804e-01
2.890000000000000000e+02,7.338086999999999804e-01
2.900000000000000000e+02,7.338086999999999804e-01
2.910000000000000000e+02,7.338086999999999804e-01
2.920000000000000000e+02,7.338086999999999804e-01
2.930000000000000000e+02,7.338086999999999804e-01
2.940000000000000000e+02,7.338086999999999804e-01
2.950000000000000000e+02,7.338086999999999804e-01
2.960000000000000000e+02,7.338086999999999804e-01
2.970000000000000000e+02,7.338086999999999804e-01
2.980000000000000000e+02,7.338086999999999804e-01
2.990000000000000000e+02,7.338086999999999804e-01
3.000000000000000000e+02,7.338086999999999804e-01
3.010000000000000000e+02,7.338086999999999804e-01
3.020000000000000000e+02,7.338086999999999804e-01
3.030000000000000000e+02,7.338086999999999804e-01
3.040000000000000000e+02,7.338086999999999804e-01
3.050000000000000000e+02,7.338086999999999804e-01
3.060000000000000000e+02,7.338086999999999804e-01
3.070000000000000000e+02,7.338086999999999804e-01
3.080000000000000000e+02,7.338086999999999804e-01
3.090000000000000000e+02,7.338086999999999804e-01
3.100000000000000000e+02,7.338086999999999804e-01
3.110000000000000000e+02,7.338086999999999804e-01
3.120000000000000000e+02,7.338086999999999804e-01
3.130000000000000000e+02,7.338086999999999804e-01
3.140000000000000000e+02,7.338086999999999804e-01
3.150000000000000000e+02,7.338086999999999804e-01
3.160000000000000000e+02,7.338086999999999804e-01
3.170000000000000000e+02,7.338086999999999804e-01
3.180000000000000000e+02,7.338086999999999804e-01
3.190000000000000000e+02,7.338086999999999804e-01
3.200000000000000000e+02,7.338086999999999804e-01
3.210000000000000000e+02,7.338086999999999804e-01
3.220000000000000000e+02,7.338086999999999804e-01
3.230000000000000000e+02,7.338086999999999804e-01
3.240000000000000000e+02,7.338086999999999804e-01
3.250000000000000000e+02,7.338086999999999804e-01
3.260000000000000000e+02,7.338086999999999804e-01
3.270000000000000000e+02,7.338086999999999804e-01
3.280000000000000000e+02,7.338086999999999804e-01
3.290000000000000000e+02,7.338086999999999804e-01
3.300000000000000000e+02,7.338086999999999804e-01
3.310000000000000000e+02,7.338086999999999804e-01
3.320000000000000000e+02,7.338086999999999804e-01
3.330000000000000000e+02,7.338086999999999804e-01
3.340000000000000000e+02,7.338086999999999804e-01
3.350000000000000000e+02,7.338086999999999804e-01
3.360000000000000000e+02,7.338086999999999804e-01
3.370000000000000000e+02,7.338086999999999804e-01
3.380000000000000000e+02,7.338086999999999804e-01
3.390000000000000000e+02,7.338086999999999804e-01
3.400000000000000000e+02,7.338086999999999804e-01
3.410000000000000000e+02,7.338086999999999804e-01
3.420000000000000000e+02,7.338086999999999804e-01
3.430000000000000000e+02,7.338086999999999804e-01
3.440000000000000000e+02,7.338086999999999804e-01
3.450000000000000000e+02,7.338086999999999804e-01
3.460000000000000000e+02,7.338086999999999804e-01
3.470000000000000000e+02,7.338086999999999804e-01
3.480000000000000000e+02,7.338086999999999804e-01
3.490000000000000000e+02,7.338086999999999804e-01
3.500000000000000000e+02,7.338086999999999804e-01
3.510000000000000000e+02,7.338086999999999804e-01
3.520000000000000000e+02,7.338086999999999804e-01
3.530000000000000000e+02,7.338086999999999804e-01
3.540000000000000000e+02,7.338086999999999804e-01
3.550000000000000000e+02,7.338086999999999804e-01
3.560000000000000000e+02,7.338086999999999804e-01
3.570000000000000000e+02,7.338086999999999804e-01
3.580000000000000000e+02,7.338086999999999804e-01
3.590000000000000000e+02,7.338086999999999804e-01
3.600000000000000000e+02,7.338086999999999804e-01
3.610000000000000000e+02,7.338086999999999804e-01
3.620000000000000000e+02,7.338086999999999804e-01
3.630000000000000000e+02,7.338086999999999804e-01
3.640000000000000000e+02,7.338086999999999804e-01
3.650000000000000000e+02,7.338086999999999804e-01
3.660000000000000000e+02,7.338086999999999804e-01
3.670000000000000000e+02,7.338086999999999804e-01
3.680000000000000000e+02,7.338086999999999804e-01
3.690000000000000000e+02,7.338086999999999804e-01
3.700000000000000000e+02,7.338086999999999804e-01
3.710000000000000000e+02,7.338086999999999804e-01
3.720000000000000000e+02,7.338086999999999804e-01
3.730000000000000000e+02,7.338086999999999804e-01
3.740000000000000000e+02,7.338086999999999804e-01
3.750000000000000000e+02,7.338086999999999804e-01
3.760000000000000000e+02,7.338086999999999804e-01
3.770000000000000000e+02,7.338086999999999804e-01
3.780000000000000000e+02,7.338086999999999804e-01
3.790000000000000000e+02,7.338086999999999804e-01
3.800000000000000000e+02,7.338086999999999804e-01
3.810000000000000000e+02,7.338086999999999804e-01
3.820000000000000000e+02,7.338086999999999804e-01
3.830000000000000000e+02,7.338086999999999804e-01
3.840000000000000000e+02,7.338086999999999804e-01
3.850000000000000000e+02,7.338086999999999804e-01
3.860000000000000000e+02,7.338086999999999804e-01
3.870000000000000000e+02,7.338086999999999804e-01
3.880000000000000000e+02,7.338086999999999804e-01
3.890000000000000000e+02,7.338086999999999804e-01
3.900000000000000000e+02,7.338086999999999804e-01
3.910000000000000000e+02,7.338086999999999804e-01
3.920000000000000000e+02,7.338086999999999804e-01
3.930000000000000000e+02,7.338086999999999804e-01
3.940000000000000000e+02,7.338086999999999804e-01
3.950000000000000000e+02,7.338086999999999804e-01
3.960000000000000000e+02,7.338086999999999804e-01
3.970000000000000000e+02,7.338086999999999804e-01
3.980000000000000000e+02,7.338086999999999804e-01
3.990000000000000000e+02,7.338086999999999804e-01
4.000000000000000000e+02,7.338086999999999804e-01
4.010000000000000000e+02,7.338086999999999804e-01
4.020000000000000000e+02,7.338086999999999804e-01
4.030000000000000000e+02,7.338086999999999804e-01
4.040000000000000000e+02,7.338086999999999804e-01
4.050000000000000000e+02,7.338086999999999804e-01
4.060000000000000000e+02,7.338086999999999804e-01
4.070000000000000000e+02,7.338086999999999804e-01
4.080000000000000000e+02,7.338086999999999804e-01
4.090000000000000000e+02,7.338086999999999804e-01
4.100000000000000000e+02,7.338086999999999804e-01
4.110000000000000000e+02,7.338086999999999804e-01
4.120000000000000000e+02,7.338086999999999804e-01
4.130000000000000000e+02,7.338086999999999804e-01
4.140000000000000000e+02,7.338086999999999804e-01
4.150000000000000000e+02,7.338086999999999804e-01
4.160000000000000000e+02,7.338086999999999804e-01
4.170000000000000000e+02,7.338086999999999804e-01
4.180000000000000000e+02,7.338086999999999804e-01
4.190000000000000000e+02,7.338086999999999804e-01
4.200000000000000000e+02,7.338086999999999804e-01
4.210000000000000000e+02,7.338086999999999804e-01
4.220000000000000000e+02,7.338086999999999804e-01
4.230000000000000000e+02,7.338086999999999804e-01
4.240000000000000000e+02,7.338086999999999804e-01
4.250000000000000000e+02,7.338086999999999804e-01
4.260000000000000000e+02,7.338086999999999804e-01
4.270000000000000000e+02,7.338086999999999804e-01
4.280000000000000000e+02,7.338086999999999804e-01
4.290000000000000000e+02,7.338086999999999804e-01
4.300000000000000000e+02,7.338086999999999804e-01
4.310000000000000000e+02,7.338086999999999804e-01
4.320000000000000000e+02,7.338086999999999804e-01
4.330000000000000000e+02,7.338086999999999804e-01
4.340000000000000000e+02,7.338086999999999804e-01
4.350000000000000000e+02,7.338086999999999804e-01
4.360000000000000000e+02,7.338086999999999804e-01
4.370000000000000000e+02,7.338086999999999804e-01
4.380000000000000000e+02,7.338086999999999804e-01
4.390000000000000000e+02,7.338086999999999804e-01
4.400000000000000000e+02,7.338086999999999804e-01
4.410000000000000000e+02,7.338086999999999804e-01
4.420000000000000000e+02,7.338086999999999804e-01
4.430000000000000000e+02,7.338086999999999804e-01
4.440000000000000000e+02,7.338086999999999804e-01
4.450000000000000000e+02,7.338086999999999804e-01
4.460000000000000000e+02,7.338086999999999804e-01
4.470000000000000000e+02,7.338086999999999804e-01
4.480000000000000000e+02,7.338086999999999804e-01
4.490000000000000000e+02,7.338086999999999804e-01
4.500000000000000000e+02,7.338086999999999804e-01
4.510000000000000000e+02,7.338086999999999804e-01
4.520000000000000000e+02,7.338086999999999804e-01
4.530000000000000000e+02,7.338086999999999804e-01
4.540000000000000000e+02,7.338086999999999804e-01
4.550000000000000000e+02,7.338086999999999804e-01
4.560000000000000000e+02,7.338086999999999804e-01
4.570000000000000000e+02,7.338086999999999804e-01
4.580000000000000000e+02,7.338086999999999804e-01
4.590000000000000000e+02,7.338086999999999804e-01
4.600000000000000000e+02,7.338086999999999804e-01
4.610000000000000000e+02,7.338086999999999804e-01
4.620000000000000000e+02,7.338086999999999804e-01
4.630000000000000000e+02,7.338086999999999804e-01
4.640000000000000000e+02,7.338086999999999804e-01
4.650000000000000000e+02,7.338086999999999804e-01
4.660000000000000000e+02,7.338086999999999804e-01
4.670000000000000000e+02,7.338086999999999804e-01
4.680000000000000000e+02,7.338086999999999804e-01
4.690000000000000000e+02,7.338086999999999804e-01
4.700000000000000000e+02,7.338086999999999804e-01
4.710000000000000000e+02,7.338086999999999804e-01
4.720000000000000000e+02,7.338086999999999804e-01
4.730000000000000000e+02,7.338086999999999804e-01
4.740000000000000000e+02,7.338086999999999804e-01
4.750000000000000000e+02,7.338086999999999804e-01
4.760000000000000000e+02,7.338086999999999804e-01
4.770000000000000000e+02,7.338086999999999804e-01
4.780000000000000000e+02,7.338086999999999804e-01
4.790000000000000000e+02,7.338086999999999804e-01
4.800000000000000000e+02,7.338086999999999804e-01
4.810000000000000000e+02,7.338086999999999804e-01
4.820000000000000000e+02,7.338086999999999804e-01
4.830000000000000000e+02,7.338086999999999804e-01
4.840000000000000000e+02,7.338086999999999804e-01
4.850000000000000000e+02,7.338086999999999804e-01
4.860000000000000000e+02,7.338086999999999804e-01
4.870000000000000000e+02,7.338086999999999804e-01
4.880000000000000000e+02,7.338086999999999804e-01
4.890000000000000000e+02,7.338086999999999804e-01
4.900000000000000000e+02,7.338086999999999804e-01
4.910000000000000000e+02,7.338086999999999804e-01
4.920000000000000000e+02,7.338086999999999804e-01
4.930000000000000000e+02,7.338086999999999804e-01
4.940000000000000000e+02,7.338086999999999804e-01
4.950000000000000000e+02,7.338086999999999804e-01
4.960000000000000000e+02,7.338086999999999804e-01
4.970000000000000000e+02,7.338086999999999804e-01
4.980000000000000000e+02,7.338086999999999804e-01
4.990000000000000000e+02,7.338086999999999804e-01
5.000000000000000000e+02,7.338086999999999804e-01
5.010000000000000000e+02,7.338086999999999804e-01
5.020000000000000000e+02,7.338086999999999804e-01
5.030000000000000000e+02,7.338086999999999804e-01
5.040000000000000000e+02,7.338086999999999804e-01
5.050000000000000000e+02,7.338086999999999804e-01
5.060000000000000000e+02,7.338086999999999804e-01
5.070000000000000000e+02,7.338086999999999804e-01
5.080000000000000000e+02,7.338086999999999804e-01
5.090000000000000000e+02,7.338086999999999804e-01
5.100000000000000000e+02,7.338086999999999804e-01
5.110000000000000000e+02,7.338086999999999804e-01
5.120000000000000000e+02,7.338086999999999804e-01
5.130000000000000000e+02,7.338086999999999804e-01
5.140000000000000000e+02,7.338086999999999804e-01
5.150000000000000000e+02,7.338086999999999804e-01
5.160000000000000000e+02,7.338086999999999804e-01
5.170000000000000000e+02,7.338086999999999804e-01
5.180000000000000000e+02,7.338086999999999804e-01
5.190000000000000000e+02,7.338086999999999804e-01
5.200000000000000000e+02,7.338086999999999804e-01
5.210000000000000000e+02,7.338086999999999804e-01
5.220000000000000000e+02,7.338086999999999804e-01
5.230000000000000000e+02,7.338086999999999804e-01
5.240000000000000000e+02,7.338086999999999804e-01
5.250000000000000000e+02,7.338086999999999804e-01
5.260000000000000000e+02,7.338086999999999804e-01
5.270000000000000000e+02,7.338086999999999804e-01
5.280000000000000000e+02,7.338086999999999804e-01
5.290000000000000000e+02,7.338086999999999804e-01
5.300000000000000000e+02,7.338086999999999804e-01
5.310000000000000000e+02,7.338086999999999804e-01
5.320000000000000000e+02,7.338086999999999804e-01
5.330000000000000000e+02,7.338086999999999804e-01
5.340000000000000000e+02,7.338086999999999804e-01
5.350000000000000000e+02,7.338086999999999804e-01
5.360000000000000000e+02,7.338086999999999804e-01
5.370000000000000000e+02,7.338086999999999804e-01
5.380000000000000000e+02,7.338086999999999804e-01
5.390000000000000000e+02,7.338086999999999804e-01
5.400000000000000000e+02,7.338086999999999804e-01
5.410000000000000000e+02,7.338086999999999804e-01
5.420000000000000000e+02,7.338086999999999804e-01
5.430000000000000000e+02,7.338086999999999804e-01
5.440000000000000000e+02,7.338086999999999804e-01
5.450000000000000000e+02,7.338086999999999804e-01
5.460000000000000000e+02,7.338086999999999804e-01
5.470000000000000000e+02,7.338086999999999804e-01
5.480000000000000000e+02,7.338086999999999804e-01
5.490000000000000000e+02,7.338086999999999804e-01
5.500000000000000000e+02,7.338086999999999804e-01
5.510000000000000000e+02,7.338086999999999804e-01
5.520000000000000000e+02,7.338086999999999804e-01
5.530000000000000000e+02,7.338086999999999804e-01
5.540000000000000000e+02,7.338086999999999804e-01
5.550000000000000000e+02,7.338086999999999804e-01
5.560000000000000000e+02,7.338086999999999804e-01
5.570000000000000000e+02,7.338086999999999804e-01
5.580000000000000000e+02,7.338086999999999804e-01
5.590000000000000000e+02,7.338086999999999804e-01
5.600000000000000000e+02,7.338086999999999804e-01
5.610000000000000000e+02,7.338086999999999804e-01
5.620000000000000000e+02,7.338086999999999804e-01
5.630000000000000000e+02,7.338086999999999804e-01
5.640000000000000000e+02,7.338086999999999804e-01
5.650000000000000000e+02,7.338086999999999804e-01
5.660000000000000000e+02,7.338086999999999804e-01
5.670000000000000000e+02,7.338086999999999804e-01
5.680000000000000000e+02,7.338086999999999804e-01
5.690000000000000000e+02,7.338086999999999804e-01
5.700000000000000000e+02,7.338086999999999804e-01
5.710000000000000000e+02,7.338086999999999804e-01
5.720000000000000000e+02,7.338086999999999804e-01
5.730000000000000000e+02,7.338086999999999804e-01
5.740000000000000000e+02,7.338086999999999804e-01
5.750000000000000000e+02,7.338086999999999804e-01
5.760000000000000000e+02,7.338086999999999804e-01
5.770000000000000000e+02,7.338086999999999804e-01
5.780000000000000000e+02,7.338086999999999804e-01
5.790000000000000000e+02,7.338086999999999804e-01
5.800000000000000000e+02,7.338086999999999804e-01
5.810000000000000000e+02,7.338086999999999804e-01
5.820000000000000000e+02,7.338086999999999804e-01
5.830000000000000000e+02,7.338086999999999804e-01
5.840000000000000000e+02,7.338086999999999804e-01
5.850000000000000000e+02,7.338086999999999804e-01
5.860000000000000000e+02,7.338086999999999804e-01
5.870000000000000000e+02,7.338086999999999804e-01
5.880000000000000000e+02,7.338086999999999804e-01
5.890000000000000000e+02,7.338086999999999804e-01
5.900000000000000000e+02,7.338086999999999804e-01
5.910000000000000000e+02,7.338086999999999804e-01
5.920000000000000000e+02,7.338086999999999804e-01
5.930000000000000000e+02,7.338086999999999804e-01
5.940000000000000000e+02,7.338086999999999804e-01
5.950000000000000000e+02,7.338086999999999804e-01
5.960000000000000000e+02,7.338086999999999804e-01
5.970000000000000000e+02,7.338086999999999804e-01
5.980000000000000000e+02,7.338086999999999804e-01
5.990000000000000000e+02,7.338086999999999804e-01