# Time [s], Mass [Kg]
1.000000000000000000e+00,1.000000000000000000e+00
2.000000000000000000e+00,1.000000000000000000e+00
3.000000000000000000e+00,1.000000000000000000e+00
4.000000000000000000e+00,1.000000000000000000e+00
5.000000000000000000e+00,1.000000000000000000e+00
6.000000000000000000e+00,1.000000000000000000e+00
7.000000000000000000e+00,1.000000000000000000e+00
8.000000000000000000e+00,1.000000000000000000e+00
9.000000000000000000e+00,1.000000000000000000e+00
1.000000000000000000e+01,1.000000000000000000e+00
1.100000000000000000e+01,1.000000000000000000e+00
1.200000000000000000e+01,1.000000000000000000e+00
1.300000000000000000e+01,1.000000000000000000e+00
1.400000000000000000e+01,9.999999400000000316e-01
1.500000000000000000e+01,9.999999400000000316e-01
1.600000000000000000e+01,9.999998199999999837e-01
1.700000000000000000e+01,9.999997000000000469e-01
1.800000000000000000e+01,9.999994599999999512e-01
1.900000000000000000e+01,9.999990500000000004e-01
2.000000000000000000e+01,9.999983300000000463e-01
2.100000000000000000e+01,9.999972000000000305e-01
2.200000000000000000e+01,9.999954100000000290e-01
2.300000000000000000e+01,9.999927899999999648e-01
2.400000000000000000e+01,9.999889100000000086e-01
2.500000000000000000e+01,9.999833700000000380e-01
2.600000000000000000e+01,9.999756800000000334e-01
2.700000000000000000e+01,9.999650700000000114e-01
2.800000000000000000e+01,9.999508900000000367e-01
2.900000000000000000e+01,9.999321100000000406e-01
3.000000000000000000e+01,9.999077299999999946e-01
3.100000000000000000e+01,9.998763800000000090e-01
3.200000000000000000e+01,9.998366199999999537e-01
3.300000000000000000e+01,9.997868500000000047e-01
3.400000000000000000e+01,9.997252800000000494e-01
3.500000000000000000e+01,9.996498200000000223e-01
3.600000000000000000e+01,9.995583900000000188e-01
3.700000000000000000e+01,9.994486599999999887e-01
3.800000000000000000e+01,9.993182400000000243e-01
3.900000000000000000e+01,9.991647599999999851e-01
4.000000000000000000e+01,9.989857100000000267e-01
4.100000000000000000e+01,9.987787599999999877e-01
4.200000000000000000e+01,9.985417100000000268e-01
4.300000000000000000e+01,9.982725399999999860e-01
4.400000000000000000e+01,9.979694500000000357e-01
4.500000000000000000e+01,9.976310099999999847e-01
4.600000000000000000e+01,9.972562200000000265e-01
4.700000000000000000e+01,9.968444100000000141e-01
4.800000000000000000e+01,9.963955300000000292e-01
4.900000000000000000e+01,9.959098100000000064e-01
5.000000000000000000e+01,9.953879700000000108e-01
5.100000000000000000e+01,9.948314999999999797e-01
5.200000000000000000e+01,9.942417700000000247e-01
5.300000000000000000e+01,9.936209299999999578e-01
5.400000000000000000e+01,9.929715999999999543e-01
5.500000000000000000e+01,9.922962199999999511e-01
5.600000000000000000e+01,9.915977700000000450e-01
5.700000000000000000e+01,9.908797099999999691e-01
5.800000000000000000e+01,9.901452099999999978e-01
5.900000000000000000e+01,9.893974100000000327e-01
6.000000000000000000e+01,9.886403099999999666e-01
6.100000000000000000e+01,9.878768300000000391e-01
6.200000000000000000e+01,9.871102600000000171e-01
6.300000000000000000e+01,9.863440399999999775e-01
6.400000000000000000e+01,9.855807399999999552e-01
6.500000000000000000e+01,9.848227499999999690e-01
6.600000000000000000e+01,9.840722100000000028e-01
6.700000000000000000e+01,9.833305500000000254e-01
6.800000000000000000e+01,9.825984800000000519e-01
6.900000000000000000e+01,9.818764899999999907e-01
7.000000000000000000e+01,9.811639199999999672e-01
7.100000000000000000e+01,9.804596300000000264e-01
7.200000000000000000e+01,9.797618999999999634e-01
7.300000000000000000e+01,9.790685799999999661e-01
7.400000000000000000e+01,9.783772200000000474e-01
7.500000000000000000e+01,9.776853899999999875e-01
7.600000000000000000e+01,9.769910600000000223e-01
7.700000000000000000e+01,9.762923700000000204e-01
7.800000000000000000e+01,9.755882599999999849e-01
7.900000000000000000e+01,9.748783699999999941e-01
8.000000000000000000e+01,9.741628799999999533e-01
8.100000000000000000e+01,9.734427900000000022e-01
8.200000000000000000e+01,9.727191899999999558e-01
8.300000000000000000e+01,9.719938000000000189e-01
8.400000000000000000e+01,9.712681800000000365e-01
8.500000000000000000e+01,9.705439799999999728e-01
8.600000000000000000e+01,9.698225900000000399e-01
8.700000000000000000e+01,9.691052399999999789e-01
8.800000000000000000e+01,9.683926699999999554e-01
8.900000000000000000e+01,9.676855199999999657e-01
9.000000000000000000e+01,9.669837399999999805e-01
9.100000000000000000e+01,9.662870799999999649e-01
9.200000000000000000e+01,9.655950100000000313e-01
9.300000000000000000e+01,9.649065100000000506e-01
9.400000000000000000e+01,9.642205799999999938e-01
9.500000000000000000e+01,9.635359000000000007e-01
9.600000000000000000e+01,9.628511100000000100e-01
9.700000000000000000e+01,9.621650600000000164e-01
9.800000000000000000e+01,9.614766200000000040e-01
9.900000000000000000e+01,9.607849099999999920e-01
1.000000000000000000e+02,9.600894500000000109e-01
1.010000000000000000e+02,9.593899799999999756e-01
1.020000000000000000e+02,9.586865900000000051e-01
1.030000000000000000e+02,9.579796200000000317e-01
1.040000000000000000e+02,9.572697900000000093e-01
1.050000000000000000e+02,9.565578099999999528e-01
1.060000000000000000e+02,9.558444600000000069e-01
1.070000000000000000e+02,9.551307599999999676e-01
1.080000000000000000e+02,9.544171700000000369e-01
1.090000000000000000e+02,9.537045400000000450e-01
1.100000000000000000e+02,9.529932100000000350e-01
1.110000000000000000e+02,9.522834999999999495e-01
1.120000000000000000e+02,9.515754600000000396e-01
1.130000000000000000e+02,9.508687300000000509e-01
1.140000000000000000e+02,9.501630699999999985e-01
1.150000000000000000e+02,9.494580000000000242e-01
1.160000000000000000e+02,9.487528200000000522e-01
1.170000000000000000e+02,9.480467399999999989e-01
1.180000000000000000e+02,9.473391199999999790e-01
1.190000000000000000e+02,9.466292299999999882e-01
1.200000000000000000e+02,9.459163000000000432e-01
1.210000000000000000e+02,9.451999100000000320e-01
1.220000000000000000e+02,9.444796399999999537e-01
1.230000000000000000e+02,9.437553899999999718e-01
1.240000000000000000e+02,9.430270200000000491e-01
1.250000000000000000e+02,9.422947799999999985e-01
1.260000000000000000e+02,9.415589599999999448e-01
1.270000000000000000e+02,9.408197999999999839e-01
1.280000000000000000e+02,9.400778400000000534e-01
1.290000000000000000e+02,9.393334399999999640e-01
1.300000000000000000e+02,9.385870099999999994e-01
1.310000000000000000e+02,9.378390300000000179e-01
1.320000000000000000e+02,9.370895599999999881e-01
1.330000000000000000e+02,9.363387800000000372e-01
1.340000000000000000e+02,9.355867500000000225e-01
1.350000000000000000e+02,9.348332900000000389e-01
1.360000000000000000e+02,9.340781000000000223e-01
1.370000000000000000e+02,9.333208800000000194e-01
1.380000000000000000e+02,9.325612199999999685e-01
1.390000000000000000e+02,9.317985800000000429e-01
1.400000000000000000e+02,9.310325400000000196e-01
1.410000000000000000e+02,9.302627399999999769e-01
1.420000000000000000e+02,9.294886599999999666e-01
1.430000000000000000e+02,9.287099800000000460e-01
1.440000000000000000e+02,9.279265399999999664e-01
1.450000000000000000e+02,9.271382099999999626e-01
1.460000000000000000e+02,9.263448699999999869e-01
1.470000000000000000e+02,9.255467699999999631e-01
1.480000000000000000e+02,9.247438900000000128e-01
1.490000000000000000e+02,9.239365499999999676e-01
1.500000000000000000e+02,9.231248499999999968e-01
1.510000000000000000e+02,9.223090400000000244e-01
1.520000000000000000e+02,9.214892399999999872e-01
1.530000000000000000e+02,9.206655599999999939e-01
1.540000000000000000e+02,9.198381300000000316e-01
1.550000000000000000e+02,9.190067600000000336e-01
1.560000000000000000e+02,9.181714100000000212e-01
1.570000000000000000e+02,9.173319300000000176e-01
1.580000000000000000e+02,9.164879900000000301e-01
1.590000000000000000e+02,9.156393999999999922e-01
1.600000000000000000e+02,9.147856800000000455e-01
1.610000000000000000e+02,9.139264799999999855e-01
1.620000000000000000e+02,9.130615600000000498e-01
1.630000000000000000e+02,9.121906800000000315e-01
1.640000000000000000e+02,9.113134699999999588e-01
1.650000000000000000e+02,9.104298899999999639e-01
1.660000000000000000e+02,9.095396999999999510e-01
1.670000000000000000e+02,9.086428899999999809e-01
1.680000000000000000e+02,9.077394600000000535e-01
1.690000000000000000e+02,9.068294199999999972e-01
1.700000000000000000e+02,9.059127599999999836e-01
1.710000000000000000e+02,9.049895399999999812e-01
1.720000000000000000e+02,9.040598300000000087e-01
1.730000000000000000e+02,9.031235600000000474e-01
1.740000000000000000e+02,9.021806700000000179e-01
1.750000000000000000e+02,9.012309899999999541e-01
1.760000000000000000e+02,9.002744000000000302e-01
1.770000000000000000e+02,8.993106499999999892e-01
1.780000000000000000e+02,8.983395100000000078e-01
1.790000000000000000e+02,8.973607399999999901e-01
1.800000000000000000e+02,8.963740500000000333e-01
1.810000000000000000e+02,8.953791300000000231e-01
1.820000000000000000e+02,8.943756800000000062e-01
1.830000000000000000e+02,8.933635399999999560e-01
1.840000000000000000e+02,8.923423900000000408e-01
1.850000000000000000e+02,8.913120599999999616e-01
1.860000000000000000e+02,8.902725000000000222e-01
1.870000000000000000e+02,8.892234599999999656e-01
1.880000000000000000e+02,8.881649400000000139e-01
1.890000000000000000e+02,8.870969399999999450e-01
1.900000000000000000e+02,8.860192900000000149e-01
1.910000000000000000e+02,8.849318600000000146e-01
1.920000000000000000e+02,8.838346599999999942e-01
1.930000000000000000e+02,8.827275599999999667e-01
1.940000000000000000e+02,8.816103299999999976e-01
1.950000000000000000e+02,8.804829100000000075e-01
1.960000000000000000e+02,8.793450600000000117e-01
1.970000000000000000e+02,8.781966599999999623e-01
1.980000000000000000e+02,8.770374699999999857e-01
1.990000000000000000e+02,8.758673099999999545e-01
2.000000000000000000e+02,8.746860600000000430e-01
2.010000000000000000e+02,8.734935499999999520e-01
2.020000000000000000e+02,8.722897200000000462e-01
2.030000000000000000e+02,8.710744999999999738e-01
2.040000000000000000e+02,8.698478299999999885e-01
2.050000000000000000e+02,8.686097900000000482e-01
2.060000000000000000e+02,8.673602299999999543e-01
2.070000000000000000e+02,8.660994199999999532e-01
2.080000000000000000e+02,8.648272799999999760e-01
2.090000000000000000e+02,8.635439900000000391e-01
2.100000000000000000e+02,8.622496099999999997e-01
2.110000000000000000e+02,8.609442099999999876e-01
2.120000000000000000e+02,8.596280200000000482e-01
2.130000000000000000e+02,8.583010399999999596e-01
2.140000000000000000e+02,8.569634600000000102e-01
2.150000000000000000e+02,8.556154999999999733e-01
2.160000000000000000e+02,8.542572299999999785e-01
2.170000000000000000e+02,8.528889400000000398e-01
2.180000000000000000e+02,8.515108200000000016e-01
2.190000000000000000e+02,8.501231700000000391e-01
2.200000000000000000e+02,8.487263299999999733e-01
2.210000000000000000e+02,8.473205600000000004e-01
2.220000000000000000e+02,8.459063199999999894e-01
2.230000000000000000e+02,8.444839100000000043e-01
2.240000000000000000e+02,8.430538199999999538e-01
2.250000000000000000e+02,8.416164499999999604e-01
2.260000000000000000e+02,8.401722299999999644e-01
2.270000000000000000e+02,8.387216899999999642e-01
2.280000000000000000e+02,8.372652499999999609e-01
2.290000000000000000e+02,8.358033299999999555e-01
2.300000000000000000e+02,8.343364599999999465e-01
2.310000000000000000e+02,8.328651200000000143e-01
2.320000000000000000e+02,8.313897799999999672e-01
2.330000000000000000e+02,8.299109900000000151e-01
2.340000000000000000e+02,8.284291599999999978e-01
2.350000000000000000e+02,8.269448900000000435e-01
2.360000000000000000e+02,8.254586499999999605e-01
2.370000000000000000e+02,8.239710300000000487e-01
2.380000000000000000e+02,8.224824699999999655e-01
2.390000000000000000e+02,8.209934800000000532e-01
2.400000000000000000e+02,8.195046799999999854e-01
2.410000000000000000e+02,8.180165299999999640e-01
2.420000000000000000e+02,8.165295099999999584e-01
2.430000000000000000e+02,8.150441600000000175e-01
2.440000000000000000e+02,8.135609000000000313e-01
2.450000000000000000e+02,8.120803199999999666e-01
2.460000000000000000e+02,8.106027799999999672e-01
2.470000000000000000e+02,8.091287000000000340e-01
2.480000000000000000e+02,8.076586100000000545e-01
2.490000000000000000e+02,8.061928699999999504e-01
2.500000000000000000e+02,8.047319699999999632e-01
2.510000000000000000e+02,8.032761800000000063e-01
2.520000000000000000e+02,8.018260600000000071e-01
2.530000000000000000e+02,8.003818999999999795e-01
2.540000000000000000e+02,7.989441200000000354e-01
2.550000000000000000e+02,7.975130099999999667e-01
2.560000000000000000e+02,7.960889899999999963e-01
2.570000000000000000e+02,7.946724299999999852e-01
2.580000000000000000e+02,7.932636100000000079e-01
2.590000000000000000e+02,7.918629099999999754e-01
2.600000000000000000e+02,7.904706000000000232e-01
2.610000000000000000e+02,7.890869400000000145e-01
2.620000000000000000e+02,7.877123400000000109e-01
2.630000000000000000e+02,7.863469699999999785e-01
2.640000000000000000e+02,7.849911499999999709e-01
2.650000000000000000e+02,7.836452099999999810e-01
2.660000000000000000e+02,7.823094099999999829e-01
2.670000000000000000e+02,7.809839800000000221e-01
2.680000000000000000e+02,7.796692800000000201e-01
2.690000000000000000e+02,7.783654300000000248e-01
2.700000000000000000e+02,7.770728500000000372e-01
2.710000000000000000e+02,7.757916999999999730e-01
2.720000000000000000e+02,7.745222999999999969e-01
2.730000000000000000e+02,7.732648800000000433e-01
2.740000000000000000e+02,7.720196799999999859e-01
2.750000000000000000e+02,7.707870599999999683e-01
2.760000000000000000e+02,7.695672500000000360e-01
2.770000000000000000e+02,7.683605599999999702e-01
2.780000000000000000e+02,7.671672099999999883e-01
2.790000000000000000e+02,7.659875200000000328e-01
2.800000000000000000e+02,7.648217699999999564e-01
2.810000000000000000e+02,7.636703299999999528e-01
2.820000000000000000e+02,7.625334299999999566e-01
2.830000000000000000e+02,7.614114899999999686e-01
2.840000000000000000e+02,7.603048100000000531e-01
2.850000000000000000e+02,7.592136900000000521e-01
2.860000000000000000e+02,7.581385400000000274e-01
2.870000000000000000e+02,7.570797200000000116e-01
2.880000000000000000e+02,7.560376500000000055e-01
2.890000000000000000e+02,7.550126900000000418e-01
2.900000000000000000e+02,7.540053100000000397e-01
2.910000000000000000e+02,7.530159400000000502e-01
2.920000000000000000e+02,7.520450400000000535e-01
2.930000000000000000e+02,7.510930300000000504e-01
2.940000000000000000e+02,7.501605199999999973e-01
2.950000000000000000e+02,7.492479699999999854e-01
2.960000000000000000e+02,7.483559300000000025e-01
2.970000000000000000e+02,7.474849799999999655e-01
2.980000000000000000e+02,7.466356200000000554e-01
2.990000000000000000e+02,7.458085399999999643e-01
3.000000000000000000e+02,7.450044200000000005e-01
3.010000000000000000e+02,7.442237699999999512e-01
3.020000000000000000e+02,7.434673899999999502e-01
3.030000000000000000e+02,7.427358600000000255e-01
3.040000000000000000e+02,7.420299599999999884e-01
3.050000000000000000e+02,7.413503500000000468e-01
3.060000000000000000e+02,7.406977999999999618e-01
3.070000000000000000e+02,7.400730300000000206e-01
3.080000000000000000e+02,7.394767399999999657e-01
3.090000000000000000e+02,7.389096600000000237e-01
3.100000000000000000e+02,7.383724499999999580e-01
3.110000000000000000e+02,7.378656900000000185e-01
3.120000000000000000e+02,7.373901000000000483e-01
3.130000000000000000e+02,7.369460500000000192e-01
3.140000000000000000e+02,7.365340599999999904e-01
3.150000000000000000e+02,7.361543799999999971e-01
3.160000000000000000e+02,7.358071200000000367e-01
3.170000000000000000e+02,7.354922900000000485e-01
3.180000000000000000e+02,7.352095199999999497e-01
3.190000000000000000e+02,7.349584099999999509e-01
3.200000000000000000e+02,7.347381099999999998e-01
3.210000000000000000e+02,7.345474400000000514e-01
3.220000000000000000e+02,7.343850699999999732e-01
3.230000000000000000e+02,7.342491700000000066e-01
3.240000000000000000e+02,7.341377100000000544e-01
3.250000000000000000e+02,7.340482499999999577e-01
3.260000000000000000e+02,7.339783300000000121e-01
3.270000000000000000e+02,7.339250999999999969e-01
3.280000000000000000e+02,7.338858799999999905e-01
3.290000000000000000e+02,7.338579299999999916e-01
3.300000000000000000e+02,7.338388000000000133e-01
3.310000000000000000e+02,7.338262800000000530e-01
3.320000000000000000e+02,7.338184100000000321e-01
3.330000000000000000e+02,7.338138199999999500e-01
3.340000000000000000e+02,7.338111999999999968e-01
3.350000000000000000e+02,7.338098299999999963e-01
3.360000000000000000e+02,7.338091700000000106e-01
3.370000000000000000e+02,7.338088799999999967e-01
3.380000000000000000e+02,7.338087599999999489e-01
3.390000000000000000e+02,7.338086999999999804e-01
3.400000000000000000e+02,7.338086999999999804e-01
3.410000000000000000e+02,7.338086999999999804e-01
3.420000000000000000e+02,7.338086999999999804e-01
3.430000000000000000e+02,7.338086999999999804e-01
3.440000000000000000e+02,7.338086999999999804e-01
3.450000000000000000e+02,7.338086999999999804e-01
3.460000000000000000e+02,7.338086999999999804e-01
3.470000000000000000e+02,7.338086999999999804e-01
3.480000000000000000e+02,7.338086999999999804e-01
3.490000000000000000e+02,7.338086999999999804e-01
3.500000000000000000e+02,7.338086999999999804e-01
3.510000000000000000e+02,7.338086999999999804e-01
3.520000000000000000e+02,7.338086999999999804e-01
3.530000000000000000e+02,7.338086999999999804e-01
3.540000000000000000e+02,7.338086999999999804e-01
3.550000000000000000e+02,7.338086999999999804e-01
3.560000000000000000e+02,7.338086999999999804e-01
3.570000000000000000e+02,7.338086999999999804e-01
3.580000000000000000e+02,7.338086999999999804e-01
3.590000000000000000e+02,7.338086999999999804e-01
3.600000000000000000e+02,7.338086999999999804e-01
3.610000000000000000e+02,7.338086999999999804e-01
3.620000000000000000e+02,7.338086999999999804e-01
3.630000000000000000e+02,7.338086999999999804e-01
3.640000000000000000e+02,7.338086999999999804e-01
3.650000000000000000e+02,7.338086999999999804e-01
3.660000000000000000e+02,7.338086999999999804e-01
3.670000000000000000e+02,7.338086999999999804e-01
3.680000000000000000e+02,7.338086999999999804e-01
3.690000000000000000e+02,7.338086999999999804e-01
3.700000000000000000e+02,7.338086999999999804e-01
3.710000000000000000e+02,7.338086999999999804e-01
3.720000000000000000e+02,7.338086999999999804e-01
3.730000000000000000e+02,7.338086999999999804e-01
3.740000000000000000e+02,7.338086999999999804e-01
3.750000000000000000e+02,7.338086999999999804e-01
3.760000000000000000e+02,7.338086999999999804e-01
3.770000000000000000e+02,7.338086999999999804e-01
3.780000000000000000e+02,7.338086999999999804e-01
3.790000000000000000e+02,7.338086999999999804e-01
3.800000000000000000e+02,7.338086999999999804e-01
3.810000000000000000e+02,7.338086999999999804e-01
3.820000000000000000e+02,7.338086999999999804e-01
3.830000000000000000e+02,7.338086999999999804e-01
3.840000000000000000e+02,7.338086999999999804e-01
3.850000000000000000e+02,7.338086999999999804e-01
3.860000000000000000e+02,7.338086999999999804e-01
3.870000000000000000e+02,7.338086999999999804e-01
3.880000000000000000e+02,7.338086999999999804e-01
3.890000000000000000e+02,7.338086999999999804e-01
3.900000000000000000e+02,7.338086999999999804e-01
3.910000000000000000e+02,7.338086999999999804e-01
3.920000000000000000e+02,7.338086999999999804e-01
3.930000000000000000e+02,7.338086999999999804e-01
3.940000000000000000e+02,7.338086999999999804e-01
3.950000000000000000e+02,7.338086999999999804e-01
3.960000000000000000e+02,7.338086999999999804e-01
3.970000000000000000e+02,7.338086999999999804e-01
3.980000000000000000e+02,7.338086999999999804e-01
3.990000000000000000e+02,7.338086999999999804e-01
4.000000000000000000e+02,7.338086999999999804e-01
4.010000000000000000e+02,7.338086999999999804e-01
4.020000000000000000e+02,7.338086999999999804e-01
4.030000000000000000e+02,7.338086999999999804e-01
4.040000000000000000e+02,7.338086999999999804e-01
4.050000000000000000e+02,7.338086999999999804e-01
4.060000000000000000e+02,7.338086999999999804e-01
4.070000000000000000e+02,7.338086999999999804e-01
4.080000000000000000e+02,7.338086999999999804e-01
4.090000000000000000e+02,7.338086999999999804e-01
4.100000000000000000e+02,7.338086999999999804e-01
4.110000000000000000e+02,7.338086999999999804e-01
4.120000000000000000e+02,7.338086999999999804e-01
4.130000000000000000e+02,7.338086999999999804e-01
4.140000000000000000e+02,7.338086999999999804e-01
4.150000000000000000e+02,7.338086999999999804e-01
4.160000000000000000e+02,7.338086999999999804e-01
4.170000000000000000e+02,7.338086999999999804e-01
4.180000000000000000e+02,7.338086999999999804e-01
4.190000000000000000e+02,7.338086999999999804e-01
4.200000000000000000e+02,7.338086999999999804e-01
4.210000000000000000e+02,7.338086999999999804e-01
4.220000000000000000e+02,7.338086999999999804e-01
4.230000000000000000e+02,7.338086999999999804e-01
4.240000000000000000e+02,7.338086999999999804e-01
4.250000000000000000e+02,7.338086999999999804e-01
4.260000000000000000e+02,7.338086999999999804e-01
4.270000000000000000e+02,7.338086999999999804e-01
4.280000000000000000e+02,7.338086999999999804e-01
4.290000000000000000e+02,7.338086999999999804e-01
4.300000000000000000e+02,7.338086999999999804e-01
4.310000000000000000e+02,7.338086999999999804e-01
4.320000000000000000e+02,7.338086999999999804e-01
4.330000000000000000e+02,7.338086999999999804e-01
4.340000000000000000e+02,7.338086999999999804e-01
4.350000000000000000e+02,7.338086999999999804e-01
4.360000000000000000e+02,7.338086999999999804e-01
4.370000000000000000e+02,7.338086999999999804e-01
4.380000000000000000e+02,7.338086999999999804e-01
4.390000000000000000e+02,7.338086999999999804e-01
4.400000000000000000e+02,7.338086999999999804e-01
4.410000000000000000e+02,7.338086999999999804e-01
4.420000000000000000e+02,7.338086999999999804e-01
4.430000000000000000e+02,7.338086999999999804e-01
4.440000000000000000e+02,7.338086999999999804e-01
4.450000000000000000e+02,7.338086999999999804e-01
4.460000000000000000e+02,7.338086999999999804e-01
4.470000000000000000e+02,7.338086999999999804e-01
4.480000000000000000e+02,7.338086999999999804e-01
4.490000000000000000e+02,7.338086999999999804e-01
4.500000000000000000e+02,7.338086999999999804e-01
4.510000000000000000e+02,7.338086999999999804e-01
4.520000000000000000e+02,7.338086999999999804e-01
4.530000000000000000e+02,7.338086999999999804e-01
4.540000000000000000e+02,7.338086999999999804e-01
4.550000000000000000e+02,7.338086999999999804e-01
4.560000000000000000e+02,7.338086999999999804e-01
4.570000000000000000e+02,7.338086999999999804e-01
4.580000000000000000e+02,7.338086999999999804e-01
4.590000000000000000e+02,7.338086999999999804e-01
4.600000000000000000e+02,7.338086999999999804e-01
4.610000000000000000e+02,7.338086999999999804e-01
4.620000000000000000e+02,7.338086999999999804e-01
4.630000000000000000e+02,7.338086999999999804e-01
4.640000000000000000e+02,7.338086999999999804e-01
4.650000000000000000e+02,7.338086999999999804e-01
4.660000000000000000e+02,7.338086999999999804e-01
4.670000000000000000e+02,7.338086999999999804e-01
4.680000000000000000e+02,7.338086999999999804e-01
4.690000000000000000e+02,7.338086999999999804e-01
4.700000000000000000e+02,7.338086999999999804e-01
4.710000000000000000e+02,7.338086999999999804e-01
4.720000000000000000e+02,7.338086999999999804e-01
4.730000000000000000e+02,7.338086999999999804e-01
4.740000000000000000e+02,7.338086999999999804e-01
4.750000000000000000e+02,7.338086999999999804e-01
4.760000000000000000e+02,7.338086999999999804e-01
4.770000000000000000e+02,7.338086999999999804e-01
4.780000000000000000e+02,7.338086999999999804e-01
4.790000000000000000e+02,7.338086999999999804e-01
4.800000000000000000e+02,7.338086999999999804e-01
4.810000000000000000e+02,7.338086999999999804e-01
4.820000000000000000e+02,7.338086999999999804e-01
4.830000000000000000e+02,7.338086999999999804e-01
4.840000000000000000e+02,7.338086999999999804e-01
4.850000000000000000e+02,7.338086999999999804e-01
4.860000000000000000e+02,7.338086999999999804e-01
4.870000000000000000e+02,7.338086999999999804e-01
4.880000000000000000e+02,7.338086999999999804e-01
4.890000000000000000e+02,7.338086999999999804e-01
4.900000000000000000e+02,7.338086999999999804e-01
4.910000000000000000e+02,7.338086999999999804e-01
4.920000000000000000e+02,7.338086999999999804e-01
4.930000000000000000e+02,7.338086999999999804e-01
4.940000000000000000e+02,7.338086999999999804e-01
4.950000000000000000e+02,7.338086999999999804e-01
4.960000000000000000e+02,7.338086999999999804e-01
4.970000000000000000e+02,7.338086999999999804e-01
4.980000000000000000e+02,7.338086999999999804e-01
4.990000000000000000e+02,7.338086999999999804e-01
5.000000000000000000e+02,7.338086999999999804e-01
5.010000000000000000e+02,7.338086999999999804e-01
5.020000000000000000e+02,7.338086999999999804e-01
5.030000000000000000e+02,7.338086999999999804e-01
5.040000000000000000e+02,7.338086999999999804e-01
5.050000000000000000e+02,7.338086999999999804e-01
5.060000000000000000e+02,7.338086999999999804e-01
5.070000000000000000e+02,7.338086999999999804e-01
5.080000000000000000e+02,7.338086999999999804e-01
5.090000000000000000e+02,7.338086999999999804e-01
5.100000000000000000e+02,7.338086999999999804e-01
5.110000000000000000e+02,7.338086999999999804e-01
5.120000000000000000e+02,7.338086999999999804e-01
5.130000000000000000e+02,7.338086999999999804e-01
5.140000000000000000e+02,7.338086999999999804e-01
5.150000000000000000e+02,7.338086999999999804e-01
5.160000000000000000e+02,7.338086999999999804e-01
5.170000000000000000e+02,7.338086999999999804e-01
5.180000000000000000e+02,7.338086999999999804e-01
5.190000000000000000e+02,7.338086999999999804e-01
5.200000000000000000e+02,7.338086999999999804e-01
5.210000000000000000e+02,7.338086999999999804e-01
5.220000000000000000e+02,7.338086999999999804e-01
5.230000000000000000e+02,7.338086999999999804e-01
5.240000000000000000e+02,7.338086999999999804e-01
5.250000000000000000e+02,7.338086999999999804e-01
5.260000000000000000e+02,7.338086999999999804e-01
5.270000000000000000e+02,7.338086999999999804e-01
5.280000000000000000e+02,7.338086999999999804e-01
5.290000000000000000e+02,7.338086999999999804e-01
5.300000000000000000e+02,7.338086999999999804e-01
5.310000000000000000e+02,7.338086999999999804e-01
5.320000000000000000e+02,7.338086999999999804e-01
5.330000000000000000e+02,7.338086999999999804e-01
5.340000000000000000e+02,7.338086999999999804e-01
5.350000000000000000e+02,7.338086999999999804e-01
5.360000000000000000e+02,7.338086999999999804e-01
5.370000000000000000e+02,7.338086999999999804e-01
5.380000000000000000e+02,7.338086999999999804e-01
5.390000000000000000e+02,7.338086999999999804e-01
5.400000000000000000e+02,7.338086999999999804e-01
5.410000000000000000e+02,7.338086999999999804e-01
5.420000000000000000e+02,7.338086999999999804e-01
5.430000000000000000e+02,7.338086999999999804e-01
5.440000000000000000e+02,7.338086999999999804e-01
5.450000000000000000e+02,7.338086999999999804e-01
5.460000000000000000e+02,7.338086999999999804e-01
5.470000000000000000e+02,7.338086999999999804e-01
5.480000000000000000e+02,7.338086999999999804e-01
5.490000000000000000e+02,7.338086999999999804e-01
5.500000000000000000e+02,7.338086999999999804e-01
5.510000000000000000e+02,7.338086999999999804e-01
5.520000000000000000e+02,7.338086999999999804e-01
5.530000000000000000e+02,7.338086999999999804e-01
5.540000000000000000e+02,7.338086999999999804e-01
5.550000000000000000e+02,7.338086999999999804e-01
5.560000000000000000e+02,7.338086999999999804e-01
5.570000000000000000e+02,7.338086999999999804e-01
5.580000000000000000e+02,7.338086999999999804e-01
5.590000000000000000e+02,7.338086999999999804e-01
5.600000000000000000e+02,7.338086999999999804e-01
5.610000000000000000e+02,7.338086999999999804e-01
5.620000000000000000e+02,7.338086999999999804e-01
5.630000000000000000e+02,7.338086999999999804e-01
5.640000000000000000e+02,7.338086999999999804e-01
5.650000000000000000e+02,7.338086999999999804e-01
5.660000000000000000e+02,7.338086999999999804e-01
5.670000000000000000e+02,7.338086999999999804e-01
5.680000000000000000e+02,7.338086999999999804e-01
5.690000000000000000e+02,7.338086999999999804e-01
5.700000000000000000e+02,7.338086999999999804e-01
5.710000000000000000e+02,7.338086999999999804e-01
5.720000000000000000e+02,7.338086999999999804e-01
5.730000000000000000e+02,7.338086999999999804e-01
5.740000000000000000e+02,7.338086999999999804e-01
5.750000000000000000e+02,7.338086999999999804e-01
5.760000000000000000e+02,7.338086999999999804e-01
5.770000000000000000e+02,7.338086999999999804e-01
5.780000000000000000e+02,7.338086999999999804e-01
5.790000000000000000e+02,7.338086999999999804e-01
5.800000000000000000e+02,7.338086999999999804e-01
5.810000000000000000e+02,7.338086999999999804e-01
5.820000000000000000e+02,7.338086999999999804e-01
5.830000000000000000e+02,7.338086999999999804e-01
5.840000000000000000e+02,7.338086999999999804e-01
5.850000000000000000e+02,7.338086999999999804e-01
5.860000000000000000e+02,7.338086999999999804e-01
5.870000000000000000e+02,7.338086999999999804e-01
5.880000000000000000e+02,7.338086999999999804e-01
5.890000000000000000e+02,7.338086999999999804e-01
5.900000000000000000e+02,7.338086999999999804e-01
5.910000000000000000e+02,7.338086999999999804e-01
5.920000000000000000e+02,7.338086999999999804e-01
5.930000000000000000e+02,7.338086999999999804e-01
5.940000000000000000e+02,7.338086999999999804e-01
5.950000000000000000e+02,7.338086999999999804e-01
5.960000000000000000e+02,7.338086999999999804e-01
5.970000000000000000e+02,7.338086999999999804e-01
5.980000000000000000e+02,7.338086999999999804e-01
5.990000000000000000e+02,7.338086999999999804e-01