# Time [s], Temperature [C]
1.000000000000000000e+00,2.500000000000000000e+01
2.000000000000000000e+00,2.500000000000000000e+01
3.000000000000000000e+00,2.500000000000000000e+01
4.000000000000000000e+00,2.500000000000000000e+01
5.000000000000000000e+00,2.500000599999999906e+01
6.000000000000000000e+00,2.500003099999999989e+01
7.000000000000000000e+00,2.500013399999999919e+01
8.000000000000000000e+00,2.500046199999999885e+01
9.000000000000000000e+00,2.500136399999999881e+01
1.000000000000000000e+01,2.500350999999999857e+01
1.100000000000000000e+01,2.500804099999999863e+01
1.200000000000000000e+01,2.501667399999999830e+01
1.300000000000000000e+01,2.503175699999999892e+01
1.400000000000000000e+01,2.505625200000000063e+01
1.500000000000000000e+01,2.509364499999999865e+01
1.600000000000000000e+01,2.514783299999999855e+01
1.700000000000000000e+01,2.522296499999999853e+01
1.800000000000000000e+01,2.532330899999999829e+01
1.900000000000000000e+01,2.545311699999999888e+01
2.000000000000000000e+01,2.561650099999999952e+01
2.100000000000000000e+01,2.581736000000000075e+01
2.200000000000000000e+01,2.605931999999999960e+01
2.300000000000000000e+01,2.634566299999999828e+01
2.400000000000000000e+01,2.667931700000000106e+01
2.500000000000000000e+01,2.706283600000000078e+01
2.600000000000000000e+01,2.749840500000000176e+01
2.700000000000000000e+01,2.798783699999999897e+01
2.800000000000000000e+01,2.853259800000000013e+01
2.900000000000000000e+01,2.913385200000000097e+01
3.000000000000000000e+01,2.979239499999999907e+01
3.100000000000000000e+01,3.050878900000000016e+01
3.200000000000000000e+01,3.128330199999999905e+01
3.300000000000000000e+01,3.211597100000000182e+01
3.400000000000000000e+01,3.300659600000000182e+01
3.500000000000000000e+01,3.395483000000000118e+01
3.600000000000000000e+01,3.496009099999999847e+01
3.700000000000000000e+01,3.602172900000000055e+01
3.800000000000000000e+01,3.713886300000000062e+01
3.900000000000000000e+01,3.831065000000000254e+01
4.000000000000000000e+01,3.953602200000000266e+01
4.100000000000000000e+01,4.081385800000000330e+01
4.200000000000000000e+01,4.214293299999999931e+01
4.300000000000000000e+01,4.352203800000000200e+01
4.400000000000000000e+01,4.494988599999999934e+01
4.500000000000000000e+01,4.642507599999999712e+01
4.600000000000000000e+01,4.794624300000000261e+01
4.700000000000000000e+01,4.951204700000000258e+01
4.800000000000000000e+01,5.112099800000000016e+01
4.900000000000000000e+01,5.277168999999999954e+01
5.000000000000000000e+01,5.446274199999999865e+01
5.100000000000000000e+01,5.619258500000000112e+01
5.200000000000000000e+01,5.795975899999999825e+01
5.300000000000000000e+01,5.976290099999999939e+01
5.400000000000000000e+01,6.160044500000000056e+01
5.500000000000000000e+01,6.347102399999999989e+01
5.600000000000000000e+01,6.537313799999999731e+01
5.700000000000000000e+01,6.730535899999999572e+01
5.800000000000000000e+01,6.926628900000000044e+01
5.900000000000000000e+01,7.125447800000000598e+01
6.000000000000000000e+01,7.326853199999999333e+01
6.100000000000000000e+01,7.530709799999999632e+01
6.200000000000000000e+01,7.736879700000000071e+01
6.300000000000000000e+01,7.945224000000000331e+01
6.400000000000000000e+01,8.155617499999999609e+01
6.500000000000000000e+01,8.367932899999999563e+01
6.600000000000000000e+01,8.582028999999999996e+01
6.700000000000000000e+01,8.797793599999999969e+01
6.800000000000000000e+01,9.015108499999999481e+01
6.900000000000000000e+01,9.233848600000000317e+01
7.000000000000000000e+01,9.453913099999999758e+01
7.100000000000000000e+01,9.675176199999999938e+01
7.200000000000000000e+01,9.897553299999999865e+01
7.300000000000000000e+01,1.012092099999999988e+02
7.400000000000000000e+01,1.034519999999999982e+02
7.500000000000000000e+01,1.057028700000000043e+02
7.600000000000000000e+01,1.079608800000000031e+02
7.700000000000000000e+01,1.102253999999999934e+02
7.800000000000000000e+01,1.124954299999999989e+02
7.900000000000000000e+01,1.147701299999999947e+02
8.000000000000000000e+01,1.170490300000000019e+02
8.100000000000000000e+01,1.193313200000000052e+02
8.200000000000000000e+01,1.216161799999999999e+02
8.300000000000000000e+01,1.239032200000000046e+02
8.400000000000000000e+01,1.261918399999999991e+02
8.500000000000000000e+01,1.284812900000000013e+02
8.600000000000000000e+01,1.307712400000000059e+02
8.700000000000000000e+01,1.330611900000000105e+02
8.800000000000000000e+01,1.353506500000000017e+02
8.900000000000000000e+01,1.376389800000000037e+02
9.000000000000000000e+01,1.399260299999999972e+02
9.100000000000000000e+01,1.422113200000000006e+02
9.200000000000000000e+01,1.444943399999999940e+02
9.300000000000000000e+01,1.467748699999999928e+02
9.400000000000000000e+01,1.490526099999999872e+02
9.500000000000000000e+01,1.513270899999999983e+02
9.600000000000000000e+01,1.535979600000000005e+02
9.700000000000000000e+01,1.558651299999999935e+02
9.800000000000000000e+01,1.581281400000000019e+02
9.900000000000000000e+01,1.603866700000000094e+02
1.000000000000000000e+02,1.626407199999999875e+02
1.010000000000000000e+02,1.648898000000000081e+02
1.020000000000000000e+02,1.671338299999999890e+02
1.030000000000000000e+02,1.693725900000000024e+02
1.040000000000000000e+02,1.716057600000000036e+02
1.050000000000000000e+02,1.738333299999999895e+02
1.060000000000000000e+02,1.760549599999999941e+02
1.070000000000000000e+02,1.782706100000000049e+02
1.080000000000000000e+02,1.804800600000000088e+02
1.090000000000000000e+02,1.826831999999999994e+02
1.100000000000000000e+02,1.848798199999999952e+02
1.110000000000000000e+02,1.870698700000000088e+02
1.120000000000000000e+02,1.892531600000000083e+02
1.130000000000000000e+02,1.914296400000000062e+02
1.140000000000000000e+02,1.935990299999999991e+02
1.150000000000000000e+02,1.957613499999999931e+02
1.160000000000000000e+02,1.979164600000000007e+02
1.170000000000000000e+02,2.000641599999999869e+02
1.180000000000000000e+02,2.022044799999999896e+02
1.190000000000000000e+02,2.043372500000000116e+02
1.200000000000000000e+02,2.064623300000000086e+02
1.210000000000000000e+02,2.085797699999999963e+02
1.220000000000000000e+02,2.106893499999999904e+02
1.230000000000000000e+02,2.127909699999999873e+02
1.240000000000000000e+02,2.148845200000000091e+02
1.250000000000000000e+02,2.169700799999999958e+02
1.260000000000000000e+02,2.190474700000000041e+02
1.270000000000000000e+02,2.211166399999999896e+02
1.280000000000000000e+02,2.231774299999999869e+02
1.290000000000000000e+02,2.252298600000000022e+02
1.300000000000000000e+02,2.272738500000000101e+02
1.310000000000000000e+02,2.293093599999999981e+02
1.320000000000000000e+02,2.313363799999999912e+02
1.330000000000000000e+02,2.333547399999999925e+02
1.340000000000000000e+02,2.353644099999999924e+02
1.350000000000000000e+02,2.373653400000000033e+02
1.360000000000000000e+02,2.393574800000000096e+02
1.370000000000000000e+02,2.413407699999999920e+02
1.380000000000000000e+02,2.433150899999999979e+02
1.390000000000000000e+02,2.452805199999999957e+02
1.400000000000000000e+02,2.472369199999999978e+02
1.410000000000000000e+02,2.491842200000000105e+02
1.420000000000000000e+02,2.511224100000000021e+02
1.430000000000000000e+02,2.530514200000000073e+02
1.440000000000000000e+02,2.549712100000000135e+02
1.450000000000000000e+02,2.568816199999999981e+02
1.460000000000000000e+02,2.587826800000000276e+02
1.470000000000000000e+02,2.606744100000000230e+02
1.480000000000000000e+02,2.625566699999999969e+02
1.490000000000000000e+02,2.644293499999999995e+02
1.500000000000000000e+02,2.662925700000000120e+02
1.510000000000000000e+02,2.681461199999999963e+02
1.520000000000000000e+02,2.699899300000000153e+02
1.530000000000000000e+02,2.718240999999999872e+02
1.540000000000000000e+02,2.736484399999999937e+02
1.550000000000000000e+02,2.754629499999999780e+02
1.560000000000000000e+02,2.772675800000000095e+02
1.570000000000000000e+02,2.790622599999999807e+02
1.580000000000000000e+02,2.808468899999999735e+02
1.590000000000000000e+02,2.826214600000000132e+02
1.600000000000000000e+02,2.843858299999999986e+02
1.610000000000000000e+02,2.861400499999999738e+02
1.620000000000000000e+02,2.878839399999999955e+02
1.630000000000000000e+02,2.896174599999999941e+02
1.640000000000000000e+02,2.913405799999999886e+02
1.650000000000000000e+02,2.930531300000000101e+02
1.660000000000000000e+02,2.947550400000000081e+02
1.670000000000000000e+02,2.964462300000000141e+02
1.680000000000000000e+02,2.981266800000000217e+02
1.690000000000000000e+02,2.997962299999999800e+02
1.700000000000000000e+02,3.014547999999999774e+02
1.710000000000000000e+02,3.031022600000000011e+02
1.720000000000000000e+02,3.047384900000000130e+02
1.730000000000000000e+02,3.063634000000000128e+02
1.740000000000000000e+02,3.079768399999999815e+02
1.750000000000000000e+02,3.095787399999999820e+02
1.760000000000000000e+02,3.111688800000000015e+02
1.770000000000000000e+02,3.127471300000000269e+02
1.780000000000000000e+02,3.143133500000000140e+02
1.790000000000000000e+02,3.158673699999999940e+02
1.800000000000000000e+02,3.174090299999999729e+02
1.810000000000000000e+02,3.189381999999999948e+02
1.820000000000000000e+02,3.204545899999999961e+02
1.830000000000000000e+02,3.219581299999999828e+02
1.840000000000000000e+02,3.234486099999999738e+02
1.850000000000000000e+02,3.249258399999999938e+02
1.860000000000000000e+02,3.263895299999999793e+02
1.870000000000000000e+02,3.278396000000000186e+02
1.880000000000000000e+02,3.292758499999999913e+02
1.890000000000000000e+02,3.306979400000000169e+02
1.900000000000000000e+02,3.321057999999999879e+02
1.910000000000000000e+02,3.334991099999999733e+02
1.920000000000000000e+02,3.348776899999999728e+02
1.930000000000000000e+02,3.362413000000000238e+02
1.940000000000000000e+02,3.375897499999999809e+02
1.950000000000000000e+02,3.389228499999999826e+02
1.960000000000000000e+02,3.402402999999999906e+02
1.970000000000000000e+02,3.415418999999999983e+02
1.980000000000000000e+02,3.428274799999999800e+02
1.990000000000000000e+02,3.440967400000000112e+02
2.000000000000000000e+02,3.453495199999999841e+02
2.010000000000000000e+02,3.465856299999999806e+02
2.020000000000000000e+02,3.478048999999999751e+02
2.030000000000000000e+02,3.490071100000000115e+02
2.040000000000000000e+02,3.501921399999999949e+02
2.050000000000000000e+02,3.513597700000000259e+02
2.060000000000000000e+02,3.525099500000000035e+02
2.070000000000000000e+02,3.536424600000000282e+02
2.080000000000000000e+02,3.547572299999999927e+02
2.090000000000000000e+02,3.558540600000000040e+02
2.100000000000000000e+02,3.569330100000000243e+02
2.110000000000000000e+02,3.579940199999999777e+02
2.120000000000000000e+02,3.590369900000000030e+02
2.130000000000000000e+02,3.600619500000000244e+02
2.140000000000000000e+02,3.610689100000000167e+02
2.150000000000000000e+02,3.620578899999999862e+02
2.160000000000000000e+02,3.630289900000000216e+02
2.170000000000000000e+02,3.639823000000000093e+02
2.180000000000000000e+02,3.649179100000000062e+02
2.190000000000000000e+02,3.658360000000000127e+02
2.200000000000000000e+02,3.667368200000000229e+02
2.210000000000000000e+02,3.676204500000000053e+02
2.220000000000000000e+02,3.684872100000000046e+02
2.230000000000000000e+02,3.693373700000000213e+02
2.240000000000000000e+02,3.701711999999999989e+02
2.250000000000000000e+02,3.709890100000000075e+02
2.260000000000000000e+02,3.717911700000000224e+02
2.270000000000000000e+02,3.725780300000000125e+02
2.280000000000000000e+02,3.733500099999999975e+02
2.290000000000000000e+02,3.741075399999999718e+02
2.300000000000000000e+02,3.748510999999999740e+02
2.310000000000000000e+02,3.755810500000000047e+02
2.320000000000000000e+02,3.762979700000000207e+02
2.330000000000000000e+02,3.770023499999999785e+02
2.340000000000000000e+02,3.776946399999999926e+02
2.350000000000000000e+02,3.783754299999999944e+02
2.360000000000000000e+02,3.790452599999999848e+02
2.370000000000000000e+02,3.797047099999999773e+02
2.380000000000000000e+02,3.803543399999999792e+02
2.390000000000000000e+02,3.809946299999999724e+02
2.400000000000000000e+02,3.816263400000000274e+02
2.410000000000000000e+02,3.822498800000000188e+02
2.420000000000000000e+02,3.828659400000000232e+02
2.430000000000000000e+02,3.834750700000000165e+02
2.440000000000000000e+02,3.840778799999999933e+02
2.450000000000000000e+02,3.846749599999999987e+02
2.460000000000000000e+02,3.852668800000000147e+02
2.470000000000000000e+02,3.858542800000000170e+02
2.480000000000000000e+02,3.864376500000000192e+02
2.490000000000000000e+02,3.870176399999999717e+02
2.500000000000000000e+02,3.875947600000000079e+02
2.510000000000000000e+02,3.881695300000000088e+02
2.520000000000000000e+02,3.887426500000000260e+02
2.530000000000000000e+02,3.893145400000000222e+02
2.540000000000000000e+02,3.898858599999999797e+02
2.550000000000000000e+02,3.904570299999999747e+02
2.560000000000000000e+02,3.910286300000000210e+02
2.570000000000000000e+02,3.916012000000000057e+02
2.580000000000000000e+02,3.921752900000000182e+02
2.590000000000000000e+02,3.927513099999999895e+02
2.600000000000000000e+02,3.933299299999999903e+02
2.610000000000000000e+02,3.939114099999999894e+02
2.620000000000000000e+02,3.944964899999999943e+02
2.630000000000000000e+02,3.950853599999999801e+02
2.640000000000000000e+02,3.956788000000000238e+02
2.650000000000000000e+02,3.962770399999999995e+02
2.660000000000000000e+02,3.968808000000000220e+02
2.670000000000000000e+02,3.974902999999999906e+02
2.680000000000000000e+02,3.981062900000000013e+02
2.690000000000000000e+02,3.987290300000000229e+02
2.700000000000000000e+02,3.993591599999999744e+02
2.710000000000000000e+02,3.999970999999999890e+02
2.720000000000000000e+02,4.006433700000000044e+02
2.730000000000000000e+02,4.012984599999999773e+02
2.740000000000000000e+02,4.019627699999999777e+02
2.750000000000000000e+02,4.026368699999999876e+02
2.760000000000000000e+02,4.033213499999999954e+02
2.770000000000000000e+02,4.040165700000000015e+02
2.780000000000000000e+02,4.047232700000000136e+02
2.790000000000000000e+02,4.054417399999999816e+02
2.800000000000000000e+02,4.061729399999999828e+02
2.810000000000000000e+02,4.069172399999999925e+02
2.820000000000000000e+02,4.076752900000000182e+02
2.830000000000000000e+02,4.084476900000000228e+02
2.840000000000000000e+02,4.092352300000000014e+02
2.850000000000000000e+02,4.100384799999999927e+02
2.860000000000000000e+02,4.108580900000000042e+02
2.870000000000000000e+02,4.116947599999999738e+02
2.880000000000000000e+02,4.125492899999999850e+02
2.890000000000000000e+02,4.134227300000000014e+02
2.900000000000000000e+02,4.143160399999999868e+02
2.910000000000000000e+02,4.152293099999999981e+02
2.920000000000000000e+02,4.161640300000000252e+02
2.930000000000000000e+02,4.171213399999999751e+02
2.940000000000000000e+02,4.181017200000000003e+02
2.950000000000000000e+02,4.191065399999999954e+02
2.960000000000000000e+02,4.201365099999999870e+02
2.970000000000000000e+02,4.211931799999999839e+02
2.980000000000000000e+02,4.222774999999999750e+02
2.990000000000000000e+02,4.233907500000000255e+02
3.000000000000000000e+02,4.245340600000000109e+02
3.010000000000000000e+02,4.257089799999999968e+02
3.020000000000000000e+02,4.269164999999999850e+02
3.030000000000000000e+02,4.281579600000000028e+02
3.040000000000000000e+02,4.294349700000000212e+02
3.050000000000000000e+02,4.307488099999999918e+02
3.060000000000000000e+02,4.321004899999999793e+02
3.070000000000000000e+02,4.334912100000000237e+02
3.080000000000000000e+02,4.349227000000000203e+02
3.090000000000000000e+02,4.363951999999999884e+02
3.100000000000000000e+02,4.379105500000000006e+02
3.110000000000000000e+02,4.394688699999999812e+02
3.120000000000000000e+02,4.410711099999999760e+02
3.130000000000000000e+02,4.427166399999999840e+02
3.140000000000000000e+02,4.444061899999999810e+02
3.150000000000000000e+02,4.461382100000000150e+02
3.160000000000000000e+02,4.479117400000000089e+02
3.170000000000000000e+02,4.497246700000000033e+02
3.180000000000000000e+02,4.515749200000000201e+02
3.190000000000000000e+02,4.534580100000000016e+02
3.200000000000000000e+02,4.553698400000000106e+02
3.210000000000000000e+02,4.573056599999999889e+02
3.220000000000000000e+02,4.592590599999999768e+02
3.230000000000000000e+02,4.612239099999999894e+02
3.240000000000000000e+02,4.631926900000000273e+02
3.250000000000000000e+02,4.651581100000000220e+02
3.260000000000000000e+02,4.671134900000000130e+02
3.270000000000000000e+02,4.690516400000000203e+02
3.280000000000000000e+02,4.709673199999999724e+02
3.290000000000000000e+02,4.728558300000000258e+02
3.300000000000000000e+02,4.747135000000000105e+02
3.310000000000000000e+02,4.765389099999999871e+02
3.320000000000000000e+02,4.783306900000000041e+02
3.330000000000000000e+02,4.800894499999999994e+02
3.340000000000000000e+02,4.818161000000000058e+02
3.350000000000000000e+02,4.835120800000000258e+02
3.360000000000000000e+02,4.851793200000000184e+02
3.370000000000000000e+02,4.868193400000000111e+02
3.380000000000000000e+02,4.884339899999999943e+02
3.390000000000000000e+02,4.900247800000000211e+02
3.400000000000000000e+02,4.915930799999999863e+02
3.410000000000000000e+02,4.931399200000000178e+02
3.420000000000000000e+02,4.946668999999999983e+02
3.430000000000000000e+02,4.961746800000000235e+02
3.440000000000000000e+02,4.976641500000000065e+02
3.450000000000000000e+02,4.991358000000000175e+02
3.460000000000000000e+02,5.005902100000000132e+02
3.470000000000000000e+02,5.020285900000000083e+02
3.480000000000000000e+02,5.034508700000000090e+02
3.490000000000000000e+02,5.048580000000000041e+02
3.500000000000000000e+02,5.062502400000000193e+02
3.510000000000000000e+02,5.076282299999999736e+02
3.520000000000000000e+02,5.089921899999999937e+02
3.530000000000000000e+02,5.103428000000000111e+02
3.540000000000000000e+02,5.116797799999999938e+02
3.550000000000000000e+02,5.130040900000000192e+02
3.560000000000000000e+02,5.143157300000000305e+02
3.570000000000000000e+02,5.156148699999999963e+02
3.580000000000000000e+02,5.169021000000000186e+02
3.590000000000000000e+02,5.181776700000000346e+02
3.600000000000000000e+02,5.194418899999999439e+02
3.610000000000000000e+02,5.206948899999999867e+02
3.620000000000000000e+02,5.219367700000000241e+02
3.630000000000000000e+02,5.231677899999999681e+02
3.640000000000000000e+02,5.243883100000000468e+02
3.650000000000000000e+02,5.255983899999999949e+02
3.660000000000000000e+02,5.267982799999999770e+02
3.670000000000000000e+02,5.279881599999999935e+02
3.680000000000000000e+02,5.291682100000000446e+02
3.690000000000000000e+02,5.303384399999999914e+02
3.700000000000000000e+02,5.314990199999999732e+02
3.710000000000000000e+02,5.326504499999999780e+02
3.720000000000000000e+02,5.337924199999999928e+02
3.730000000000000000e+02,5.349255399999999554e+02
3.740000000000000000e+02,5.360496200000000044e+02
3.750000000000000000e+02,5.371647900000000391e+02
3.760000000000000000e+02,5.382711799999999585e+02
3.770000000000000000e+02,5.393689000000000533e+02
3.780000000000000000e+02,5.404583699999999453e+02
3.790000000000000000e+02,5.415393699999999626e+02
3.800000000000000000e+02,5.426119400000000041e+02
3.810000000000000000e+02,5.436762700000000450e+02
3.820000000000000000e+02,5.447326699999999846e+02
3.830000000000000000e+02,5.457810699999999997e+02
3.840000000000000000e+02,5.468217799999999897e+02
3.850000000000000000e+02,5.478544900000000553e+02
3.860000000000000000e+02,5.488793899999999439e+02
3.870000000000000000e+02,5.498968499999999722e+02
3.880000000000000000e+02,5.509066800000000512e+02
3.890000000000000000e+02,5.519091799999999921e+02
3.900000000000000000e+02,5.529041700000000219e+02
3.910000000000000000e+02,5.538920299999999770e+02
3.920000000000000000e+02,5.548724399999999832e+02
3.930000000000000000e+02,5.558459500000000162e+02
3.940000000000000000e+02,5.568121899999999869e+02
3.950000000000000000e+02,5.577714799999999968e+02
3.960000000000000000e+02,5.587238800000000083e+02
3.970000000000000000e+02,5.596693699999999581e+02
3.980000000000000000e+02,5.606081500000000233e+02
3.990000000000000000e+02,5.615400399999999763e+02
4.000000000000000000e+02,5.624652700000000323e+02
4.010000000000000000e+02,5.633839699999999766e+02
4.020000000000000000e+02,5.642960799999999608e+02
4.030000000000000000e+02,5.652015400000000227e+02
4.040000000000000000e+02,5.661005900000000111e+02
4.050000000000000000e+02,5.669933499999999640e+02
4.060000000000000000e+02,5.678798199999999952e+02
4.070000000000000000e+02,5.687599500000000035e+02
4.080000000000000000e+02,5.696337300000000141e+02
4.090000000000000000e+02,5.705013999999999896e+02
4.100000000000000000e+02,5.713630399999999554e+02
4.110000000000000000e+02,5.722184399999999869e+02
4.120000000000000000e+02,5.730677500000000464e+02
4.130000000000000000e+02,5.739111299999999574e+02
4.140000000000000000e+02,5.747487200000000485e+02
4.150000000000000000e+02,5.755803200000000288e+02
4.160000000000000000e+02,5.764061900000000378e+02
4.170000000000000000e+02,5.772262600000000248e+02
4.180000000000000000e+02,5.780405299999999897e+02
4.190000000000000000e+02,5.788491199999999708e+02
4.200000000000000000e+02,5.796519799999999805e+02
4.210000000000000000e+02,5.804492800000000443e+02
4.220000000000000000e+02,5.812410300000000234e+02
4.230000000000000000e+02,5.820272200000000566e+02
4.240000000000000000e+02,5.828080400000000054e+02
4.250000000000000000e+02,5.835833699999999453e+02
4.260000000000000000e+02,5.843533300000000281e+02
4.270000000000000000e+02,5.851178599999999506e+02
4.280000000000000000e+02,5.858770799999999781e+02
4.290000000000000000e+02,5.866310399999999845e+02
4.300000000000000000e+02,5.873797600000000330e+02
4.310000000000000000e+02,5.881233499999999594e+02
4.320000000000000000e+02,5.888616899999999532e+02
4.330000000000000000e+02,5.895949100000000271e+02
4.340000000000000000e+02,5.903230600000000550e+02
4.350000000000000000e+02,5.910461999999999989e+02
4.360000000000000000e+02,5.917642799999999852e+02
4.370000000000000000e+02,5.924774800000000141e+02
4.380000000000000000e+02,5.931857300000000350e+02
4.390000000000000000e+02,5.938890400000000227e+02
4.400000000000000000e+02,5.945874599999999646e+02
4.410000000000000000e+02,5.952811900000000378e+02
4.420000000000000000e+02,5.959699699999999893e+02
4.430000000000000000e+02,5.966539900000000216e+02
4.440000000000000000e+02,5.973333699999999453e+02
4.450000000000000000e+02,5.980080000000000382e+02
4.460000000000000000e+02,5.986779800000000478e+02
4.470000000000000000e+02,5.993433199999999488e+02
4.480000000000000000e+02,6.000040900000000192e+02
4.490000000000000000e+02,6.006603400000000192e+02
4.500000000000000000e+02,6.013120699999999488e+02
4.510000000000000000e+02,6.019592300000000478e+02
4.520000000000000000e+02,6.026019900000000007e+02
4.530000000000000000e+02,6.032402299999999968e+02
4.540000000000000000e+02,6.038742099999999482e+02
4.550000000000000000e+02,6.045037800000000061e+02
4.560000000000000000e+02,6.051290299999999434e+02
4.570000000000000000e+02,6.057499400000000378e+02
4.580000000000000000e+02,6.063665799999999990e+02
4.590000000000000000e+02,6.069790000000000418e+02
4.600000000000000000e+02,6.075872200000000021e+02
4.610000000000000000e+02,6.081912200000000439e+02
4.620000000000000000e+02,6.087910799999999654e+02
4.630000000000000000e+02,6.093867800000000443e+02
4.640000000000000000e+02,6.099783899999999903e+02
4.650000000000000000e+02,6.105659799999999677e+02
4.660000000000000000e+02,6.111495400000000018e+02
4.670000000000000000e+02,6.117290000000000418e+02
4.680000000000000000e+02,6.123044999999999618e+02
4.690000000000000000e+02,6.128760999999999513e+02
4.700000000000000000e+02,6.134437299999999595e+02
4.710000000000000000e+02,6.140074499999999489e+02
4.720000000000000000e+02,6.145673799999999574e+02
4.730000000000000000e+02,6.151234699999999975e+02
4.740000000000000000e+02,6.156756599999999935e+02
4.750000000000000000e+02,6.162241199999999708e+02
4.760000000000000000e+02,6.167687399999999798e+02
4.770000000000000000e+02,6.173096900000000460e+02
4.780000000000000000e+02,6.178469199999999546e+02
4.790000000000000000e+02,6.183804300000000467e+02
4.800000000000000000e+02,6.189103400000000192e+02
4.810000000000000000e+02,6.194365800000000490e+02
4.820000000000000000e+02,6.199591699999999719e+02
4.830000000000000000e+02,6.204782699999999522e+02
4.840000000000000000e+02,6.209937700000000405e+02
4.850000000000000000e+02,6.215058000000000220e+02
4.860000000000000000e+02,6.220142200000000230e+02
4.870000000000000000e+02,6.225191700000000310e+02
4.880000000000000000e+02,6.230206899999999450e+02
4.890000000000000000e+02,6.235187399999999798e+02
4.900000000000000000e+02,6.240134299999999712e+02
4.910000000000000000e+02,6.245046399999999949e+02
4.920000000000000000e+02,6.249925500000000511e+02
4.930000000000000000e+02,6.254771700000000010e+02
4.940000000000000000e+02,6.259584399999999960e+02
4.950000000000000000e+02,6.264364000000000487e+02
4.960000000000000000e+02,6.269110100000000330e+02
4.970000000000000000e+02,6.273824499999999489e+02
4.980000000000000000e+02,6.278507100000000491e+02
4.990000000000000000e+02,6.283156699999999546e+02
5.000000000000000000e+02,6.287774699999999939e+02
5.010000000000000000e+02,6.292362100000000282e+02
5.020000000000000000e+02,6.296917099999999436e+02
5.030000000000000000e+02,6.301440999999999804e+02
5.040000000000000000e+02,6.305933800000000247e+02
5.050000000000000000e+02,6.310396100000000388e+02
5.060000000000000000e+02,6.314827900000000227e+02
5.070000000000000000e+02,6.319229100000000017e+02
5.080000000000000000e+02,6.323600500000000011e+02
5.090000000000000000e+02,6.327941899999999578e+02
5.100000000000000000e+02,6.332252799999999979e+02
5.110000000000000000e+02,6.336535000000000082e+02
5.120000000000000000e+02,6.340787400000000389e+02
5.130000000000000000e+02,6.345010999999999513e+02
5.140000000000000000e+02,6.349205899999999474e+02
5.150000000000000000e+02,6.353371600000000399e+02
5.160000000000000000e+02,6.357509199999999510e+02
5.170000000000000000e+02,6.361618700000000217e+02
5.180000000000000000e+02,6.365700100000000248e+02
5.190000000000000000e+02,6.369754000000000360e+02
5.200000000000000000e+02,6.373779899999999543e+02
5.210000000000000000e+02,6.377778299999999945e+02
5.220000000000000000e+02,6.381749300000000176e+02
5.230000000000000000e+02,6.385693400000000111e+02
5.240000000000000000e+02,6.389610000000000127e+02
5.250000000000000000e+02,6.393500400000000354e+02
5.260000000000000000e+02,6.397363900000000285e+02
5.270000000000000000e+02,6.401201200000000426e+02
5.280000000000000000e+02,6.405011600000000271e+02
5.290000000000000000e+02,6.408796999999999571e+02
5.300000000000000000e+02,6.412555499999999711e+02
5.310000000000000000e+02,6.416289100000000190e+02
5.320000000000000000e+02,6.419996300000000247e+02
5.330000000000000000e+02,6.423678599999999506e+02
5.340000000000000000e+02,6.427335199999999986e+02
5.350000000000000000e+02,6.430966799999999921e+02
5.360000000000000000e+02,6.434574000000000069e+02
5.370000000000000000e+02,6.438157300000000305e+02
5.380000000000000000e+02,6.441715699999999742e+02
5.390000000000000000e+02,6.445249599999999646e+02
5.400000000000000000e+02,6.448759800000000268e+02
5.410000000000000000e+02,6.452245500000000220e+02
5.420000000000000000e+02,6.455707400000000007e+02
5.430000000000000000e+02,6.459145499999999629e+02
5.440000000000000000e+02,6.462559800000000223e+02
5.450000000000000000e+02,6.465951499999999896e+02
5.460000000000000000e+02,6.469320699999999533e+02
5.470000000000000000e+02,6.472666000000000395e+02
5.480000000000000000e+02,6.475988800000000083e+02
5.490000000000000000e+02,6.479288299999999481e+02
5.500000000000000000e+02,6.482565899999999601e+02
5.510000000000000000e+02,6.485820899999999938e+02
5.520000000000000000e+02,6.489053999999999860e+02
5.530000000000000000e+02,6.492264400000000251e+02
5.540000000000000000e+02,6.495453499999999849e+02
5.550000000000000000e+02,6.498619999999999663e+02
5.560000000000000000e+02,6.501765699999999697e+02
5.570000000000000000e+02,6.504889500000000453e+02
5.580000000000000000e+02,6.507992600000000039e+02
5.590000000000000000e+02,6.511073599999999715e+02
5.600000000000000000e+02,6.514133900000000494e+02
5.610000000000000000e+02,6.517173500000000104e+02
5.620000000000000000e+02,6.520192299999999932e+02
5.630000000000000000e+02,6.523190299999999979e+02
5.640000000000000000e+02,6.526168199999999615e+02
5.650000000000000000e+02,6.529125400000000354e+02
5.660000000000000000e+02,6.532063000000000557e+02
5.670000000000000000e+02,6.534979899999999589e+02
5.680000000000000000e+02,6.537877200000000357e+02
5.690000000000000000e+02,6.540755000000000337e+02
5.700000000000000000e+02,6.543613299999999526e+02
5.710000000000000000e+02,6.546450800000000072e+02
5.720000000000000000e+02,6.549270000000000209e+02
5.730000000000000000e+02,6.552070300000000316e+02
5.740000000000000000e+02,6.554850500000000011e+02
5.750000000000000000e+02,6.557612299999999550e+02
5.760000000000000000e+02,6.560355200000000195e+02
5.770000000000000000e+02,6.563079199999999673e+02
5.780000000000000000e+02,6.565784899999999880e+02
5.790000000000000000e+02,6.568472299999999677e+02
5.800000000000000000e+02,6.571141400000000203e+02
5.810000000000000000e+02,6.573791499999999814e+02
5.820000000000000000e+02,6.576424600000000282e+02
5.830000000000000000e+02,6.579039299999999457e+02
5.840000000000000000e+02,6.581635700000000497e+02
5.850000000000000000e+02,6.584215100000000120e+02
5.860000000000000000e+02,6.586776700000000346e+02
5.870000000000000000e+02,6.589320099999999911e+02
5.880000000000000000e+02,6.591846900000000460e+02
5.890000000000000000e+02,6.594356699999999591e+02
5.900000000000000000e+02,6.596848800000000210e+02
5.910000000000000000e+02,6.599324299999999539e+02
5.920000000000000000e+02,6.601782200000000103e+02
5.930000000000000000e+02,6.604224199999999882e+02
5.940000000000000000e+02,6.606649200000000519e+02
5.950000000000000000e+02,6.609057599999999866e+02
5.960000000000000000e+02,6.611449599999999691e+02
5.970000000000000000e+02,6.613825100000000248e+02
5.980000000000000000e+02,6.616184700000000021e+02
5.990000000000000000e+02,6.618528400000000147e+02