# Time [s], Temperature [C]
1.000000000000000000e+00,2.500000000000000000e+01
2.000000000000000000e+00,2.500000000000000000e+01
3.000000000000000000e+00,2.500000000000000000e+01
4.000000000000000000e+00,2.500000000000000000e+01
5.000000000000000000e+00,2.500000199999999850e+01
6.000000000000000000e+00,2.500000599999999906e+01
7.000000000000000000e+00,2.500002500000000083e+01
8.000000000000000000e+00,2.500008800000000164e+01
9.000000000000000000e+00,2.500025400000000175e+01
1.000000000000000000e+01,2.500064100000000167e+01
1.100000000000000000e+01,2.500144999999999840e+01
1.200000000000000000e+01,2.500296799999999919e+01
1.300000000000000000e+01,2.500559600000000060e+01
1.400000000000000000e+01,2.500982300000000080e+01
1.500000000000000000e+01,2.501622800000000169e+01
1.600000000000000000e+01,2.502544800000000080e+01
1.700000000000000000e+01,2.503816199999999981e+01
1.800000000000000000e+01,2.505506700000000109e+01
1.900000000000000000e+01,2.507684700000000078e+01
2.000000000000000000e+01,2.510417400000000043e+01
2.100000000000000000e+01,2.513767400000000052e+01
2.200000000000000000e+01,2.517793100000000095e+01
2.300000000000000000e+01,2.522547700000000148e+01
2.400000000000000000e+01,2.528078500000000162e+01
2.500000000000000000e+01,2.534427099999999911e+01
2.600000000000000000e+01,2.541628800000000155e+01
2.700000000000000000e+01,2.549713900000000066e+01
2.800000000000000000e+01,2.558706300000000056e+01
2.900000000000000000e+01,2.568625600000000020e+01
3.000000000000000000e+01,2.579486699999999999e+01
3.100000000000000000e+01,2.591299199999999914e+01
3.200000000000000000e+01,2.604069300000000098e+01
3.300000000000000000e+01,2.617799600000000027e+01
3.400000000000000000e+01,2.632489199999999840e+01
3.500000000000000000e+01,2.648134399999999999e+01
3.600000000000000000e+01,2.664728699999999861e+01
3.700000000000000000e+01,2.682263800000000131e+01
3.800000000000000000e+01,2.700729199999999963e+01
3.900000000000000000e+01,2.720112200000000158e+01
4.000000000000000000e+01,2.740399400000000085e+01
4.100000000000000000e+01,2.761576099999999911e+01
4.200000000000000000e+01,2.783626599999999840e+01
4.300000000000000000e+01,2.806532699999999991e+01
4.400000000000000000e+01,2.830277999999999849e+01
4.500000000000000000e+01,2.854843699999999984e+01
4.600000000000000000e+01,2.880211399999999955e+01
4.700000000000000000e+01,2.906362299999999976e+01
4.800000000000000000e+01,2.933276700000000048e+01
4.900000000000000000e+01,2.960935999999999879e+01
5.000000000000000000e+01,2.989320199999999872e+01
5.100000000000000000e+01,3.018409499999999923e+01
5.200000000000000000e+01,3.048186300000000060e+01
5.300000000000000000e+01,3.078630300000000020e+01
5.400000000000000000e+01,3.109722299999999962e+01
5.500000000000000000e+01,3.141443800000000053e+01
5.600000000000000000e+01,3.173775699999999844e+01
5.700000000000000000e+01,3.206700500000000176e+01
5.800000000000000000e+01,3.240200000000000102e+01
5.900000000000000000e+01,3.274256100000000202e+01
6.000000000000000000e+01,3.308851200000000148e+01
6.100000000000000000e+01,3.343968600000000180e+01
6.200000000000000000e+01,3.379590999999999923e+01
6.300000000000000000e+01,3.415702799999999684e+01
6.400000000000000000e+01,3.452288399999999768e+01
6.500000000000000000e+01,3.489331099999999708e+01
6.600000000000000000e+01,3.526815400000000267e+01
6.700000000000000000e+01,3.564726999999999890e+01
6.800000000000000000e+01,3.603050999999999959e+01
6.900000000000000000e+01,3.641773599999999789e+01
7.000000000000000000e+01,3.680879999999999797e+01
7.100000000000000000e+01,3.720357500000000073e+01
7.200000000000000000e+01,3.760192899999999838e+01
7.300000000000000000e+01,3.800372699999999782e+01
7.400000000000000000e+01,3.840884799999999899e+01
7.500000000000000000e+01,3.881716899999999981e+01
7.600000000000000000e+01,3.922857700000000136e+01
7.700000000000000000e+01,3.964295200000000108e+01
7.800000000000000000e+01,4.006018399999999957e+01
7.900000000000000000e+01,4.048017099999999857e+01
8.000000000000000000e+01,4.090280200000000121e+01
8.100000000000000000e+01,4.132797599999999960e+01
8.200000000000000000e+01,4.175559200000000004e+01
8.300000000000000000e+01,4.218555800000000033e+01
8.400000000000000000e+01,4.261778600000000239e+01
8.500000000000000000e+01,4.305215799999999859e+01
8.600000000000000000e+01,4.348859800000000320e+01
8.700000000000000000e+01,4.392702100000000343e+01
8.800000000000000000e+01,4.436734799999999979e+01
8.900000000000000000e+01,4.480949400000000082e+01
9.000000000000000000e+01,4.525338699999999648e+01
9.100000000000000000e+01,4.569894399999999735e+01
9.200000000000000000e+01,4.614609899999999953e+01
9.300000000000000000e+01,4.659477199999999897e+01
9.400000000000000000e+01,4.704489900000000091e+01
9.500000000000000000e+01,4.749639899999999670e+01
9.600000000000000000e+01,4.794921500000000236e+01
9.700000000000000000e+01,4.840328199999999725e+01
9.800000000000000000e+01,4.885854299999999739e+01
9.900000000000000000e+01,4.931493799999999794e+01
1.000000000000000000e+02,4.977240799999999865e+01
1.010000000000000000e+02,5.023089999999999833e+01
1.020000000000000000e+02,5.069034200000000112e+01
1.030000000000000000e+02,5.115069199999999938e+01
1.040000000000000000e+02,5.161189999999999856e+01
1.050000000000000000e+02,5.207391400000000203e+01
1.060000000000000000e+02,5.253669399999999712e+01
1.070000000000000000e+02,5.300018699999999683e+01
1.080000000000000000e+02,5.346434800000000109e+01
1.090000000000000000e+02,5.392912700000000115e+01
1.100000000000000000e+02,5.439448500000000308e+01
1.110000000000000000e+02,5.486038200000000131e+01
1.120000000000000000e+02,5.532677799999999735e+01
1.130000000000000000e+02,5.579363599999999934e+01
1.140000000000000000e+02,5.626092100000000329e+01
1.150000000000000000e+02,5.672858800000000201e+01
1.160000000000000000e+02,5.719659800000000160e+01
1.170000000000000000e+02,5.766492800000000329e+01
1.180000000000000000e+02,5.813354100000000102e+01
1.190000000000000000e+02,5.860240600000000200e+01
1.200000000000000000e+02,5.907149499999999875e+01
1.210000000000000000e+02,5.954075999999999880e+01
1.220000000000000000e+02,6.001018899999999689e+01
1.230000000000000000e+02,6.047974399999999662e+01
1.240000000000000000e+02,6.094940900000000283e+01
1.250000000000000000e+02,6.141915900000000050e+01
1.260000000000000000e+02,6.188894700000000171e+01
1.270000000000000000e+02,6.235875699999999711e+01
1.280000000000000000e+02,6.282856799999999708e+01
1.290000000000000000e+02,6.329836300000000193e+01
1.300000000000000000e+02,6.376811200000000213e+01
1.310000000000000000e+02,6.423780100000000459e+01
1.320000000000000000e+02,6.470739000000000374e+01
1.330000000000000000e+02,6.517686500000000649e+01
1.340000000000000000e+02,6.564621699999999294e+01
1.350000000000000000e+02,6.611541699999999366e+01
1.360000000000000000e+02,6.658445000000000391e+01
1.370000000000000000e+02,6.705330700000000377e+01
1.380000000000000000e+02,6.752194199999999569e+01
1.390000000000000000e+02,6.799036399999999958e+01
1.400000000000000000e+02,6.845854199999999423e+01
1.410000000000000000e+02,6.892646799999999985e+01
1.420000000000000000e+02,6.939412699999999745e+01
1.430000000000000000e+02,6.986151099999999303e+01
1.440000000000000000e+02,7.032858299999999474e+01
1.450000000000000000e+02,7.079534099999999341e+01
1.460000000000000000e+02,7.126177199999999345e+01
1.470000000000000000e+02,7.172786700000000337e+01
1.480000000000000000e+02,7.219360399999999345e+01
1.490000000000000000e+02,7.265898900000000538e+01
1.500000000000000000e+02,7.312397799999999393e+01
1.510000000000000000e+02,7.358858499999999481e+01
1.520000000000000000e+02,7.405278800000000672e+01
1.530000000000000000e+02,7.451657899999999302e+01
1.540000000000000000e+02,7.497995000000000232e+01
1.550000000000000000e+02,7.544290200000000368e+01
1.560000000000000000e+02,7.590538800000000208e+01
1.570000000000000000e+02,7.636743199999999376e+01
1.580000000000000000e+02,7.682900999999999669e+01
1.590000000000000000e+02,7.729011500000000012e+01
1.600000000000000000e+02,7.775074800000000153e+01
1.610000000000000000e+02,7.821089899999999773e+01
1.620000000000000000e+02,7.867054699999999912e+01
1.630000000000000000e+02,7.912968399999999747e+01
1.640000000000000000e+02,7.958831800000000101e+01
1.650000000000000000e+02,8.004643199999999581e+01
1.660000000000000000e+02,8.050402099999999450e+01
1.670000000000000000e+02,8.096108200000000465e+01
1.680000000000000000e+02,8.141760999999999626e+01
1.690000000000000000e+02,8.187358100000000150e+01
1.700000000000000000e+02,8.232900200000000268e+01
1.710000000000000000e+02,8.278386700000000076e+01
1.720000000000000000e+02,8.323816700000000424e+01
1.730000000000000000e+02,8.369189500000000237e+01
1.740000000000000000e+02,8.414505800000000590e+01
1.750000000000000000e+02,8.459764099999999587e+01
1.760000000000000000e+02,8.504963700000000415e+01
1.770000000000000000e+02,8.550104500000000485e+01
1.780000000000000000e+02,8.595184299999999666e+01
1.790000000000000000e+02,8.640205400000000679e+01
1.800000000000000000e+02,8.685165399999999636e+01
1.810000000000000000e+02,8.730065199999999948e+01
1.820000000000000000e+02,8.774904600000000698e+01
1.830000000000000000e+02,8.819682299999999486e+01
1.840000000000000000e+02,8.864399000000000228e+01
1.850000000000000000e+02,8.909051499999999635e+01
1.860000000000000000e+02,8.953641500000000519e+01
1.870000000000000000e+02,8.998168200000000638e+01
1.880000000000000000e+02,9.042632299999999645e+01
1.890000000000000000e+02,9.087032299999999907e+01
1.900000000000000000e+02,9.131368999999999403e+01
1.910000000000000000e+02,9.175641600000000153e+01
1.920000000000000000e+02,9.219850200000000484e+01
1.930000000000000000e+02,9.263993800000000078e+01
1.940000000000000000e+02,9.308071099999999376e+01
1.950000000000000000e+02,9.352083600000000274e+01
1.960000000000000000e+02,9.396029699999999707e+01
1.970000000000000000e+02,9.439910899999999572e+01
1.980000000000000000e+02,9.483725699999999392e+01
1.990000000000000000e+02,9.527474999999999739e+01
2.000000000000000000e+02,9.571157100000000639e+01
2.010000000000000000e+02,9.614773599999999476e+01
2.020000000000000000e+02,9.658322900000000288e+01
2.030000000000000000e+02,9.701806600000000458e+01
2.040000000000000000e+02,9.745221700000000453e+01
2.050000000000000000e+02,9.788568899999999928e+01
2.060000000000000000e+02,9.831848100000000557e+01
2.070000000000000000e+02,9.875060299999999813e+01
2.080000000000000000e+02,9.918204500000000223e+01
2.090000000000000000e+02,9.961280800000000113e+01
2.100000000000000000e+02,1.000428899999999999e+02
2.110000000000000000e+02,1.004722900000000010e+02
2.120000000000000000e+02,1.009010099999999994e+02
2.130000000000000000e+02,1.013290499999999952e+02
2.140000000000000000e+02,1.017563999999999993e+02
2.150000000000000000e+02,1.021830700000000007e+02
2.160000000000000000e+02,1.026090499999999963e+02
2.170000000000000000e+02,1.030343500000000034e+02
2.180000000000000000e+02,1.034589500000000015e+02
2.190000000000000000e+02,1.038828500000000048e+02
2.200000000000000000e+02,1.043060600000000022e+02
2.210000000000000000e+02,1.047285799999999938e+02
2.220000000000000000e+02,1.051504099999999937e+02
2.230000000000000000e+02,1.055715500000000020e+02
2.240000000000000000e+02,1.059919799999999981e+02
2.250000000000000000e+02,1.064117300000000057e+02
2.260000000000000000e+02,1.068307800000000043e+02
2.270000000000000000e+02,1.072491299999999939e+02
2.280000000000000000e+02,1.076667900000000060e+02
2.290000000000000000e+02,1.080837499999999949e+02
2.300000000000000000e+02,1.085000100000000032e+02
2.310000000000000000e+02,1.089155700000000024e+02
2.320000000000000000e+02,1.093304399999999958e+02
2.330000000000000000e+02,1.097446000000000055e+02
2.340000000000000000e+02,1.101580699999999950e+02
2.350000000000000000e+02,1.105708400000000040e+02
2.360000000000000000e+02,1.109829100000000039e+02
2.370000000000000000e+02,1.113942899999999980e+02
2.380000000000000000e+02,1.118049500000000052e+02
2.390000000000000000e+02,1.122149399999999986e+02
2.400000000000000000e+02,1.126242299999999972e+02
2.410000000000000000e+02,1.130328099999999978e+02
2.420000000000000000e+02,1.134406800000000004e+02
2.430000000000000000e+02,1.138478599999999972e+02
2.440000000000000000e+02,1.142543399999999991e+02
2.450000000000000000e+02,1.146601299999999952e+02
2.460000000000000000e+02,1.150652000000000044e+02
2.470000000000000000e+02,1.154695700000000045e+02
2.480000000000000000e+02,1.158732499999999987e+02
2.490000000000000000e+02,1.162762199999999950e+02
2.500000000000000000e+02,1.166784999999999997e+02
2.510000000000000000e+02,1.170800799999999953e+02
2.520000000000000000e+02,1.174809500000000071e+02
2.530000000000000000e+02,1.178811299999999989e+02
2.540000000000000000e+02,1.182806099999999958e+02
2.550000000000000000e+02,1.186793899999999979e+02
2.560000000000000000e+02,1.190774700000000053e+02
2.570000000000000000e+02,1.194748500000000035e+02
2.580000000000000000e+02,1.198715300000000070e+02
2.590000000000000000e+02,1.202675100000000015e+02
2.600000000000000000e+02,1.206627900000000011e+02
2.610000000000000000e+02,1.210573700000000059e+02
2.620000000000000000e+02,1.214512600000000049e+02
2.630000000000000000e+02,1.218444499999999948e+02
2.640000000000000000e+02,1.222369499999999931e+02
2.650000000000000000e+02,1.226287399999999934e+02
2.660000000000000000e+02,1.230198400000000021e+02
2.670000000000000000e+02,1.234102500000000049e+02
2.680000000000000000e+02,1.237999499999999955e+02
2.690000000000000000e+02,1.241889699999999976e+02
2.700000000000000000e+02,1.245772900000000050e+02
2.710000000000000000e+02,1.249649200000000064e+02
2.720000000000000000e+02,1.253518600000000021e+02
2.730000000000000000e+02,1.257381100000000060e+02
2.740000000000000000e+02,1.261236499999999978e+02
2.750000000000000000e+02,1.265085100000000011e+02
2.760000000000000000e+02,1.268926600000000064e+02
2.770000000000000000e+02,1.272761299999999949e+02
2.780000000000000000e+02,1.276589100000000059e+02
2.790000000000000000e+02,1.280409999999999968e+02
2.800000000000000000e+02,1.284223900000000071e+02
2.810000000000000000e+02,1.288030899999999974e+02
2.820000000000000000e+02,1.291831099999999992e+02
2.830000000000000000e+02,1.295624200000000030e+02
2.840000000000000000e+02,1.299410599999999931e+02
2.850000000000000000e+02,1.303189999999999884e+02
2.860000000000000000e+02,1.306962599999999952e+02
2.870000000000000000e+02,1.310728300000000104e+02
2.880000000000000000e+02,1.314487000000000023e+02
2.890000000000000000e+02,1.318239000000000090e+02
2.900000000000000000e+02,1.321983899999999892e+02
2.910000000000000000e+02,1.325722199999999873e+02
2.920000000000000000e+02,1.329453699999999969e+02
2.930000000000000000e+02,1.333178299999999865e+02
2.940000000000000000e+02,1.336896099999999876e+02
2.950000000000000000e+02,1.340606999999999971e+02
2.960000000000000000e+02,1.344311099999999897e+02
2.970000000000000000e+02,1.348008299999999906e+02
2.980000000000000000e+02,1.351698800000000062e+02
2.990000000000000000e+02,1.355382400000000018e+02
3.000000000000000000e+02,1.359059100000000058e+02
3.010000000000000000e+02,1.362729199999999992e+02
3.020000000000000000e+02,1.366392400000000009e+02
3.030000000000000000e+02,1.370048800000000142e+02
3.040000000000000000e+02,1.373698400000000106e+02
3.050000000000000000e+02,1.377341299999999933e+02
3.060000000000000000e+02,1.380977499999999907e+02
3.070000000000000000e+02,1.384606899999999996e+02
3.080000000000000000e+02,1.388229699999999980e+02
3.090000000000000000e+02,1.391845600000000047e+02
3.100000000000000000e+02,1.395454699999999946e+02
3.110000000000000000e+02,1.399056999999999960e+02
3.120000000000000000e+02,1.402652699999999868e+02
3.130000000000000000e+02,1.406241599999999892e+02
3.140000000000000000e+02,1.409823800000000062e+02
3.150000000000000000e+02,1.413399400000000128e+02
3.160000000000000000e+02,1.416968200000000024e+02
3.170000000000000000e+02,1.420530400000000100e+02
3.180000000000000000e+02,1.424085800000000006e+02
3.190000000000000000e+02,1.427634700000000123e+02
3.200000000000000000e+02,1.431176800000000071e+02
3.210000000000000000e+02,1.434712100000000135e+02
3.220000000000000000e+02,1.438240800000000092e+02
3.230000000000000000e+02,1.441762999999999977e+02
3.240000000000000000e+02,1.445278500000000008e+02
3.250000000000000000e+02,1.448787199999999871e+02
3.260000000000000000e+02,1.452289399999999944e+02
3.270000000000000000e+02,1.455785099999999943e+02
3.280000000000000000e+02,1.459274000000000058e+02
3.290000000000000000e+02,1.462756200000000035e+02
3.300000000000000000e+02,1.466231999999999971e+02
3.310000000000000000e+02,1.469701100000000054e+02
3.320000000000000000e+02,1.473163600000000031e+02
3.330000000000000000e+02,1.476619599999999934e+02
3.340000000000000000e+02,1.480068799999999953e+02
3.350000000000000000e+02,1.483511699999999962e+02
3.360000000000000000e+02,1.486947900000000118e+02
3.370000000000000000e+02,1.490377499999999884e+02
3.380000000000000000e+02,1.493800500000000113e+02
3.390000000000000000e+02,1.497217100000000016e+02
3.400000000000000000e+02,1.500627100000000098e+02
3.410000000000000000e+02,1.504030799999999886e+02
3.420000000000000000e+02,1.507427700000000073e+02
3.430000000000000000e+02,1.510818199999999933e+02
3.440000000000000000e+02,1.514202099999999973e+02
3.450000000000000000e+02,1.517579499999999939e+02
3.460000000000000000e+02,1.520950499999999863e+02
3.470000000000000000e+02,1.524314899999999966e+02
3.480000000000000000e+02,1.527672900000000027e+02
3.490000000000000000e+02,1.531024500000000046e+02
3.500000000000000000e+02,1.534369499999999960e+02
3.510000000000000000e+02,1.537708000000000084e+02
3.520000000000000000e+02,1.541040199999999913e+02
3.530000000000000000e+02,1.544365799999999922e+02
3.540000000000000000e+02,1.547685199999999952e+02
3.550000000000000000e+02,1.550997900000000129e+02
3.560000000000000000e+02,1.554304500000000075e+02
3.570000000000000000e+02,1.557604399999999885e+02
3.580000000000000000e+02,1.560897999999999968e+02
3.590000000000000000e+02,1.564185300000000041e+02
3.600000000000000000e+02,1.567466100000000040e+02
3.610000000000000000e+02,1.570740499999999997e+02
3.620000000000000000e+02,1.574008599999999944e+02
3.630000000000000000e+02,1.577270200000000102e+02
3.640000000000000000e+02,1.580525700000000029e+02
3.650000000000000000e+02,1.583774600000000135e+02
3.660000000000000000e+02,1.587017199999999946e+02
3.670000000000000000e+02,1.590253600000000063e+02
3.680000000000000000e+02,1.593483400000000074e+02
3.690000000000000000e+02,1.596707199999999887e+02
3.700000000000000000e+02,1.599924499999999910e+02
3.710000000000000000e+02,1.603135499999999922e+02
3.720000000000000000e+02,1.606340299999999957e+02
3.730000000000000000e+02,1.609538699999999949e+02
3.740000000000000000e+02,1.612730899999999963e+02
3.750000000000000000e+02,1.615916699999999935e+02
3.760000000000000000e+02,1.619096399999999960e+02
3.770000000000000000e+02,1.622269699999999943e+02
3.780000000000000000e+02,1.625436899999999980e+02
3.790000000000000000e+02,1.628597699999999975e+02
3.800000000000000000e+02,1.631752299999999991e+02
3.810000000000000000e+02,1.634900800000000061e+02
3.820000000000000000e+02,1.638042900000000088e+02
3.830000000000000000e+02,1.641178899999999885e+02
3.840000000000000000e+02,1.644308599999999956e+02
3.850000000000000000e+02,1.647432300000000112e+02
3.860000000000000000e+02,1.650549599999999941e+02
3.870000000000000000e+02,1.653660700000000077e+02
3.880000000000000000e+02,1.656765699999999981e+02
3.890000000000000000e+02,1.659864699999999971e+02
3.900000000000000000e+02,1.662957499999999982e+02
3.910000000000000000e+02,1.666043899999999951e+02
3.920000000000000000e+02,1.669124300000000005e+02
3.930000000000000000e+02,1.672198600000000113e+02
3.940000000000000000e+02,1.675266699999999958e+02
3.950000000000000000e+02,1.678328700000000140e+02
3.960000000000000000e+02,1.681384600000000091e+02
3.970000000000000000e+02,1.684434400000000096e+02
3.980000000000000000e+02,1.687478199999999902e+02
3.990000000000000000e+02,1.690515699999999981e+02
4.000000000000000000e+02,1.693547199999999862e+02
4.010000000000000000e+02,1.696572700000000111e+02
4.020000000000000000e+02,1.699592100000000130e+02
4.030000000000000000e+02,1.702605399999999918e+02
4.040000000000000000e+02,1.705612600000000043e+02
4.050000000000000000e+02,1.708614000000000033e+02
4.060000000000000000e+02,1.711609200000000044e+02
4.070000000000000000e+02,1.714598400000000140e+02
4.080000000000000000e+02,1.717581500000000005e+02
4.090000000000000000e+02,1.720558800000000019e+02
4.100000000000000000e+02,1.723530000000000086e+02
4.110000000000000000e+02,1.726495099999999923e+02
4.120000000000000000e+02,1.729454200000000128e+02
4.130000000000000000e+02,1.732407499999999914e+02
4.140000000000000000e+02,1.735354800000000068e+02
4.150000000000000000e+02,1.738296100000000024e+02
4.160000000000000000e+02,1.741231400000000065e+02
4.170000000000000000e+02,1.744160799999999938e+02
4.180000000000000000e+02,1.747084199999999896e+02
4.190000000000000000e+02,1.750001699999999971e+02
4.200000000000000000e+02,1.752913399999999911e+02
4.210000000000000000e+02,1.755818899999999871e+02
4.220000000000000000e+02,1.758718700000000013e+02
4.230000000000000000e+02,1.761612700000000018e+02
4.240000000000000000e+02,1.764500600000000077e+02
4.250000000000000000e+02,1.767382800000000032e+02
4.260000000000000000e+02,1.770259100000000103e+02
4.270000000000000000e+02,1.773129399999999976e+02
4.280000000000000000e+02,1.775994000000000028e+02
4.290000000000000000e+02,1.778852500000000134e+02
4.300000000000000000e+02,1.781705499999999915e+02
4.310000000000000000e+02,1.784552500000000066e+02
4.320000000000000000e+02,1.787393600000000049e+02
4.330000000000000000e+02,1.790228999999999928e+02
4.340000000000000000e+02,1.793058499999999924e+02
4.350000000000000000e+02,1.795882300000000100e+02
4.360000000000000000e+02,1.798700300000000141e+02
4.370000000000000000e+02,1.801512500000000045e+02
4.380000000000000000e+02,1.804318800000000067e+02
4.390000000000000000e+02,1.807119399999999985e+02
4.400000000000000000e+02,1.809914200000000051e+02
4.410000000000000000e+02,1.812703400000000045e+02
4.420000000000000000e+02,1.815486799999999903e+02
4.430000000000000000e+02,1.818264499999999941e+02
4.440000000000000000e+02,1.821036400000000128e+02
4.450000000000000000e+02,1.823802599999999927e+02
4.460000000000000000e+02,1.826563099999999906e+02
4.470000000000000000e+02,1.829317800000000034e+02
4.480000000000000000e+02,1.832067000000000121e+02
4.490000000000000000e+02,1.834810300000000041e+02
4.500000000000000000e+02,1.837548099999999920e+02
4.510000000000000000e+02,1.840280199999999979e+02
4.520000000000000000e+02,1.843006599999999935e+02
4.530000000000000000e+02,1.845727200000000039e+02
4.540000000000000000e+02,1.848442400000000134e+02
4.550000000000000000e+02,1.851151900000000126e+02
4.560000000000000000e+02,1.853855599999999981e+02
4.570000000000000000e+02,1.856553800000000081e+02
4.580000000000000000e+02,1.859246400000000108e+02
4.590000000000000000e+02,1.861933400000000063e+02
4.600000000000000000e+02,1.864614899999999977e+02
4.610000000000000000e+02,1.867290600000000040e+02
4.620000000000000000e+02,1.869960800000000063e+02
4.630000000000000000e+02,1.872625400000000013e+02
4.640000000000000000e+02,1.875284599999999955e+02
4.650000000000000000e+02,1.877938100000000077e+02
4.660000000000000000e+02,1.880586099999999874e+02
4.670000000000000000e+02,1.883228499999999883e+02
4.680000000000000000e+02,1.885865300000000104e+02
4.690000000000000000e+02,1.888496700000000033e+02
4.700000000000000000e+02,1.891122599999999920e+02
4.710000000000000000e+02,1.893743000000000052e+02
4.720000000000000000e+02,1.896357899999999859e+02
4.730000000000000000e+02,1.898967100000000130e+02
4.740000000000000000e+02,1.901571000000000140e+02
4.750000000000000000e+02,1.904169500000000141e+02
4.760000000000000000e+02,1.906762400000000071e+02
4.770000000000000000e+02,1.909349799999999959e+02
4.780000000000000000e+02,1.911931800000000123e+02
4.790000000000000000e+02,1.914508399999999995e+02
4.800000000000000000e+02,1.917079500000000110e+02
4.810000000000000000e+02,1.919645199999999932e+02
4.820000000000000000e+02,1.922205500000000029e+02
4.830000000000000000e+02,1.924760300000000086e+02
4.840000000000000000e+02,1.927309899999999914e+02
4.850000000000000000e+02,1.929853799999999922e+02
4.860000000000000000e+02,1.932392600000000016e+02
4.870000000000000000e+02,1.934926000000000101e+02
4.880000000000000000e+02,1.937453899999999862e+02
4.890000000000000000e+02,1.939976499999999930e+02
4.900000000000000000e+02,1.942493699999999990e+02
4.910000000000000000e+02,1.945005500000000040e+02
4.920000000000000000e+02,1.947512099999999862e+02
4.930000000000000000e+02,1.950013299999999958e+02
4.940000000000000000e+02,1.952509200000000078e+02
4.950000000000000000e+02,1.954999699999999905e+02
4.960000000000000000e+02,1.957485000000000070e+02
4.970000000000000000e+02,1.959965100000000007e+02
4.980000000000000000e+02,1.962439699999999903e+02
4.990000000000000000e+02,1.964909100000000137e+02
5.000000000000000000e+02,1.967373200000000111e+02
5.010000000000000000e+02,1.969832000000000107e+02
5.020000000000000000e+02,1.972285599999999874e+02
5.030000000000000000e+02,1.974733999999999980e+02
5.040000000000000000e+02,1.977177100000000110e+02
5.050000000000000000e+02,1.979615000000000009e+02
5.060000000000000000e+02,1.982047699999999963e+02
5.070000000000000000e+02,1.984475099999999941e+02
5.080000000000000000e+02,1.986897400000000005e+02
5.090000000000000000e+02,1.989314400000000091e+02
5.100000000000000000e+02,1.991726199999999949e+02
5.110000000000000000e+02,1.994132799999999861e+02
5.120000000000000000e+02,1.996534399999999891e+02
5.130000000000000000e+02,1.998930699999999945e+02
5.140000000000000000e+02,2.001321900000000085e+02
5.150000000000000000e+02,2.003707699999999932e+02
5.160000000000000000e+02,2.006088699999999960e+02
5.170000000000000000e+02,2.008464400000000012e+02
5.180000000000000000e+02,2.010834999999999866e+02
5.190000000000000000e+02,2.013200400000000059e+02
5.200000000000000000e+02,2.015560800000000086e+02
5.210000000000000000e+02,2.017916099999999915e+02
5.220000000000000000e+02,2.020266300000000115e+02
5.230000000000000000e+02,2.022611200000000053e+02
5.240000000000000000e+02,2.024951199999999858e+02
5.250000000000000000e+02,2.027286200000000065e+02
5.260000000000000000e+02,2.029615900000000011e+02
5.270000000000000000e+02,2.031940800000000138e+02
5.280000000000000000e+02,2.034260600000000068e+02
5.290000000000000000e+02,2.036575300000000084e+02
5.300000000000000000e+02,2.038884999999999934e+02
5.310000000000000000e+02,2.041189599999999871e+02
5.320000000000000000e+02,2.043489199999999926e+02
5.330000000000000000e+02,2.045783999999999878e+02
5.340000000000000000e+02,2.048073599999999885e+02
5.350000000000000000e+02,2.050358300000000042e+02
5.360000000000000000e+02,2.052637900000000002e+02
5.370000000000000000e+02,2.054912600000000111e+02
5.380000000000000000e+02,2.057182300000000055e+02
5.390000000000000000e+02,2.059447199999999896e+02
5.400000000000000000e+02,2.061706800000000044e+02
5.410000000000000000e+02,2.063961799999999869e+02
5.420000000000000000e+02,2.066211900000000128e+02
5.430000000000000000e+02,2.068456700000000126e+02
5.440000000000000000e+02,2.070696900000000085e+02
5.450000000000000000e+02,2.072932000000000130e+02
5.460000000000000000e+02,2.075162400000000105e+02
5.470000000000000000e+02,2.077387699999999882e+02
5.480000000000000000e+02,2.079608299999999872e+02
5.490000000000000000e+02,2.081823899999999981e+02
5.500000000000000000e+02,2.084034599999999955e+02
5.510000000000000000e+02,2.086240500000000111e+02
5.520000000000000000e+02,2.088441599999999880e+02
5.530000000000000000e+02,2.090637800000000084e+02
5.540000000000000000e+02,2.092829099999999869e+02
5.550000000000000000e+02,2.095015699999999867e+02
5.560000000000000000e+02,2.097197299999999984e+02
5.570000000000000000e+02,2.099374200000000030e+02
5.580000000000000000e+02,2.101546299999999974e+02
5.590000000000000000e+02,2.103713500000000067e+02
5.600000000000000000e+02,2.105876199999999869e+02
5.610000000000000000e+02,2.108033900000000074e+02
5.620000000000000000e+02,2.110186799999999891e+02
5.630000000000000000e+02,2.112335099999999954e+02
5.640000000000000000e+02,2.114478499999999883e+02
5.650000000000000000e+02,2.116617099999999994e+02
5.660000000000000000e+02,2.118751100000000065e+02
5.670000000000000000e+02,2.120880300000000034e+02
5.680000000000000000e+02,2.123004799999999932e+02
5.690000000000000000e+02,2.125124399999999980e+02
5.700000000000000000e+02,2.127239500000000021e+02
5.710000000000000000e+02,2.129349799999999959e+02
5.720000000000000000e+02,2.131455400000000111e+02
5.730000000000000000e+02,2.133556399999999940e+02
5.740000000000000000e+02,2.135652599999999950e+02
5.750000000000000000e+02,2.137744299999999953e+02
5.760000000000000000e+02,2.139831200000000138e+02
5.770000000000000000e+02,2.141913499999999999e+02
5.780000000000000000e+02,2.143991200000000106e+02
5.790000000000000000e+02,2.146064100000000110e+02
5.800000000000000000e+02,2.148132600000000139e+02
5.810000000000000000e+02,2.150196400000000096e+02
5.820000000000000000e+02,2.152255600000000015e+02
5.830000000000000000e+02,2.154310000000000116e+02
5.840000000000000000e+02,2.156359999999999957e+02
5.850000000000000000e+02,2.158405300000000011e+02
5.860000000000000000e+02,2.160446200000000090e+02
5.870000000000000000e+02,2.162482300000000066e+02
5.880000000000000000e+02,2.164514000000000067e+02
5.890000000000000000e+02,2.166540999999999997e+02
5.900000000000000000e+02,2.168563499999999920e+02
5.910000000000000000e+02,2.170581500000000119e+02
5.920000000000000000e+02,2.172595100000000059e+02
5.930000000000000000e+02,2.174603899999999896e+02
5.940000000000000000e+02,2.176608300000000042e+02
5.950000000000000000e+02,2.178608199999999897e+02
5.960000000000000000e+02,2.180603600000000029e+02
5.970000000000000000e+02,2.182594599999999900e+02
5.980000000000000000e+02,2.184581000000000017e+02
5.990000000000000000e+02,2.186562999999999874e+02