# Time [s], Temperature [C]
1.000000000000000000e+00,2.499997099999999861e+01
2.000000000000000000e+00,3.358607099999999690e+01
3.000000000000000000e+00,3.844236399999999776e+01
4.000000000000000000e+00,4.240377000000000152e+01
5.000000000000000000e+00,4.571486999999999767e+01
6.000000000000000000e+00,4.862885700000000355e+01
7.000000000000000000e+00,5.124380099999999771e+01
8.000000000000000000e+00,5.363179800000000341e+01
9.000000000000000000e+00,5.583753999999999706e+01
1.000000000000000000e+01,5.789359300000000275e+01
1.100000000000000000e+01,5.982369599999999821e+01
1.200000000000000000e+01,6.164611800000000130e+01
1.300000000000000000e+01,6.337445799999999707e+01
1.400000000000000000e+01,6.502076700000000642e+01
1.500000000000000000e+01,6.659384900000000584e+01
1.600000000000000000e+01,6.810134899999999902e+01
1.700000000000000000e+01,6.954957600000000184e+01
1.800000000000000000e+01,7.094393900000000031e+01
1.900000000000000000e+01,7.228970300000000293e+01
2.000000000000000000e+01,7.358995799999999576e+01
2.100000000000000000e+01,7.484910600000000613e+01
2.200000000000000000e+01,7.606975599999999815e+01
2.300000000000000000e+01,7.725476799999999855e+01
2.400000000000000000e+01,7.840628100000000700e+01
2.500000000000000000e+01,7.952647399999999323e+01
2.600000000000000000e+01,8.061748500000000206e+01
2.700000000000000000e+01,8.168082400000000121e+01
2.800000000000000000e+01,8.271852099999999552e+01
2.900000000000000000e+01,8.373188000000000386e+01
3.000000000000000000e+01,8.472152699999999470e+01
3.100000000000000000e+01,8.568973499999999888e+01
3.200000000000000000e+01,8.663663499999999829e+01
3.300000000000000000e+01,8.756407199999999591e+01
3.400000000000000000e+01,8.847267200000000287e+01
3.500000000000000000e+01,8.936274699999999882e+01
3.600000000000000000e+01,9.023588599999999360e+01
3.700000000000000000e+01,9.109255199999999775e+01
3.800000000000000000e+01,9.193357100000000059e+01
3.900000000000000000e+01,9.275894200000000467e+01
4.000000000000000000e+01,9.356986999999999455e+01
4.100000000000000000e+01,9.436701999999999657e+01
4.200000000000000000e+01,9.515042099999999436e+01
4.300000000000000000e+01,9.592135600000000295e+01
4.400000000000000000e+01,9.667965700000000595e+01
4.500000000000000000e+01,9.742590300000000525e+01
4.600000000000000000e+01,9.816052999999999429e+01
4.700000000000000000e+01,9.888404800000000705e+01
4.800000000000000000e+01,9.959699200000000019e+01
4.900000000000000000e+01,1.002993500000000040e+02
5.000000000000000000e+01,1.009919299999999964e+02
5.100000000000000000e+01,1.016743599999999930e+02
5.200000000000000000e+01,1.023473500000000058e+02
5.300000000000000000e+01,1.030115700000000061e+02
5.400000000000000000e+01,1.036669499999999999e+02
5.500000000000000000e+01,1.043134600000000063e+02
5.600000000000000000e+01,1.049520299999999935e+02
5.700000000000000000e+01,1.055825300000000055e+02
5.800000000000000000e+01,1.062049300000000045e+02
5.900000000000000000e+01,1.068203100000000063e+02
6.000000000000000000e+01,1.074278699999999986e+02
6.100000000000000000e+01,1.080284900000000050e+02
6.200000000000000000e+01,1.086222800000000035e+02
6.300000000000000000e+01,1.092093700000000069e+02
6.400000000000000000e+01,1.097898899999999998e+02
6.500000000000000000e+01,1.103642099999999999e+02
6.600000000000000000e+01,1.109322899999999947e+02
6.700000000000000000e+01,1.114943899999999957e+02
6.800000000000000000e+01,1.120507400000000047e+02
6.900000000000000000e+01,1.126016800000000018e+02
7.000000000000000000e+01,1.131465800000000002e+02
7.100000000000000000e+01,1.136866700000000066e+02
7.200000000000000000e+01,1.142212200000000024e+02
7.300000000000000000e+01,1.147506999999999948e+02
7.400000000000000000e+01,1.152756200000000035e+02
7.500000000000000000e+01,1.157954900000000009e+02
7.600000000000000000e+01,1.163106499999999954e+02
7.700000000000000000e+01,1.168216100000000068e+02
7.800000000000000000e+01,1.173277700000000010e+02
7.900000000000000000e+01,1.178298000000000059e+02
8.000000000000000000e+01,1.183276400000000024e+02
8.100000000000000000e+01,1.188212699999999984e+02
8.200000000000000000e+01,1.193110499999999945e+02
8.300000000000000000e+01,1.197971600000000052e+02
8.400000000000000000e+01,1.202789800000000042e+02
8.500000000000000000e+01,1.207574900000000042e+02
8.600000000000000000e+01,1.212324700000000064e+02
8.700000000000000000e+01,1.217039699999999982e+02
8.800000000000000000e+01,1.221720799999999940e+02
8.900000000000000000e+01,1.226363599999999963e+02
9.000000000000000000e+01,1.230977100000000064e+02
9.100000000000000000e+01,1.235559499999999957e+02
9.200000000000000000e+01,1.240112299999999976e+02
9.300000000000000000e+01,1.244633800000000008e+02
9.400000000000000000e+01,1.249122200000000049e+02
9.500000000000000000e+01,1.253582899999999967e+02
9.600000000000000000e+01,1.258018299999999954e+02
9.700000000000000000e+01,1.262426300000000055e+02
9.800000000000000000e+01,1.266807500000000033e+02
9.900000000000000000e+01,1.271161299999999983e+02
1.000000000000000000e+02,1.275487099999999998e+02
1.010000000000000000e+02,1.279790600000000040e+02
1.020000000000000000e+02,1.284070299999999918e+02
1.030000000000000000e+02,1.288326000000000136e+02
1.040000000000000000e+02,1.292558699999999874e+02
1.050000000000000000e+02,1.296765000000000043e+02
1.060000000000000000e+02,1.300950599999999895e+02
1.070000000000000000e+02,1.305115399999999966e+02
1.080000000000000000e+02,1.309258399999999938e+02
1.090000000000000000e+02,1.313380600000000129e+02
1.100000000000000000e+02,1.317479899999999873e+02
1.110000000000000000e+02,1.321560100000000091e+02
1.120000000000000000e+02,1.325620999999999867e+02
1.130000000000000000e+02,1.329663700000000119e+02
1.140000000000000000e+02,1.333686399999999992e+02
1.150000000000000000e+02,1.337690000000000055e+02
1.160000000000000000e+02,1.341676600000000121e+02
1.170000000000000000e+02,1.345645100000000127e+02
1.180000000000000000e+02,1.349596099999999979e+02
1.190000000000000000e+02,1.353530399999999929e+02
1.200000000000000000e+02,1.357447500000000105e+02
1.210000000000000000e+02,1.361347499999999968e+02
1.220000000000000000e+02,1.365231899999999996e+02
1.230000000000000000e+02,1.369099999999999966e+02
1.240000000000000000e+02,1.372952600000000132e+02
1.250000000000000000e+02,1.376790499999999895e+02
1.260000000000000000e+02,1.380612600000000043e+02
1.270000000000000000e+02,1.384419900000000041e+02
1.280000000000000000e+02,1.388213199999999858e+02
1.290000000000000000e+02,1.391991700000000094e+02
1.300000000000000000e+02,1.395756100000000117e+02
1.310000000000000000e+02,1.399507299999999930e+02
1.320000000000000000e+02,1.403246200000000101e+02
1.330000000000000000e+02,1.406969499999999869e+02
1.340000000000000000e+02,1.410680399999999963e+02
1.350000000000000000e+02,1.414377900000000068e+02
1.360000000000000000e+02,1.418062400000000025e+02
1.370000000000000000e+02,1.421734800000000121e+02
1.380000000000000000e+02,1.425394300000000101e+02
1.390000000000000000e+02,1.429041599999999903e+02
1.400000000000000000e+02,1.432677500000000066e+02
1.410000000000000000e+02,1.436300999999999988e+02
1.420000000000000000e+02,1.439912600000000111e+02
1.430000000000000000e+02,1.443515899999999874e+02
1.440000000000000000e+02,1.447105699999999899e+02
1.450000000000000000e+02,1.450685400000000129e+02
1.460000000000000000e+02,1.454252199999999959e+02
1.470000000000000000e+02,1.457807799999999929e+02
1.480000000000000000e+02,1.461352100000000007e+02
1.490000000000000000e+02,1.464886300000000006e+02
1.500000000000000000e+02,1.468409599999999955e+02
1.510000000000000000e+02,1.471922299999999950e+02
1.520000000000000000e+02,1.475425299999999993e+02
1.530000000000000000e+02,1.478917700000000082e+02
1.540000000000000000e+02,1.482399900000000059e+02
1.550000000000000000e+02,1.485874599999999930e+02
1.560000000000000000e+02,1.489339799999999912e+02
1.570000000000000000e+02,1.492794499999999971e+02
1.580000000000000000e+02,1.496240099999999984e+02
1.590000000000000000e+02,1.499675000000000011e+02
1.600000000000000000e+02,1.503100300000000118e+02
1.610000000000000000e+02,1.506516399999999862e+02
1.620000000000000000e+02,1.509924900000000036e+02
1.630000000000000000e+02,1.513322100000000034e+02
1.640000000000000000e+02,1.516711300000000051e+02
1.650000000000000000e+02,1.520091099999999926e+02
1.660000000000000000e+02,1.523464199999999948e+02
1.670000000000000000e+02,1.526827399999999955e+02
1.680000000000000000e+02,1.530181100000000072e+02
1.690000000000000000e+02,1.533528399999999863e+02
1.700000000000000000e+02,1.536866499999999860e+02
1.710000000000000000e+02,1.540195300000000032e+02
1.720000000000000000e+02,1.543515199999999936e+02
1.730000000000000000e+02,1.546826900000000080e+02
1.740000000000000000e+02,1.550132399999999961e+02
1.750000000000000000e+02,1.553429600000000050e+02
1.760000000000000000e+02,1.556716600000000028e+02
1.770000000000000000e+02,1.559995399999999961e+02
1.780000000000000000e+02,1.563265700000000038e+02
1.790000000000000000e+02,1.566529199999999946e+02
1.800000000000000000e+02,1.569784899999999936e+02
1.810000000000000000e+02,1.573035999999999888e+02
1.820000000000000000e+02,1.576276400000000137e+02
1.830000000000000000e+02,1.579508800000000122e+02
1.840000000000000000e+02,1.582733299999999872e+02
1.850000000000000000e+02,1.585950599999999895e+02
1.860000000000000000e+02,1.589159899999999936e+02
1.870000000000000000e+02,1.592366000000000099e+02
1.880000000000000000e+02,1.595561999999999898e+02
1.890000000000000000e+02,1.598749500000000126e+02
1.900000000000000000e+02,1.601929000000000087e+02
1.910000000000000000e+02,1.605101500000000101e+02
1.920000000000000000e+02,1.608267700000000104e+02
1.930000000000000000e+02,1.611427199999999971e+02
1.940000000000000000e+02,1.614579500000000110e+02
1.950000000000000000e+02,1.617723799999999983e+02
1.960000000000000000e+02,1.620860099999999875e+02
1.970000000000000000e+02,1.623991200000000106e+02
1.980000000000000000e+02,1.627112700000000132e+02
1.990000000000000000e+02,1.630229799999999898e+02
2.000000000000000000e+02,1.633338799999999935e+02
2.010000000000000000e+02,1.636442600000000027e+02
2.020000000000000000e+02,1.639537699999999916e+02
2.030000000000000000e+02,1.642625899999999888e+02
2.040000000000000000e+02,1.645708899999999915e+02
2.050000000000000000e+02,1.648783300000000054e+02
2.060000000000000000e+02,1.651852299999999900e+02
2.070000000000000000e+02,1.654912899999999922e+02
2.080000000000000000e+02,1.657967199999999934e+02
2.090000000000000000e+02,1.661017300000000034e+02
2.100000000000000000e+02,1.664060100000000091e+02
2.110000000000000000e+02,1.667093399999999974e+02
2.120000000000000000e+02,1.670120699999999943e+02
2.130000000000000000e+02,1.673141200000000026e+02
2.140000000000000000e+02,1.676157800000000009e+02
2.150000000000000000e+02,1.679168200000000013e+02
2.160000000000000000e+02,1.682169299999999907e+02
2.170000000000000000e+02,1.685163699999999949e+02
2.180000000000000000e+02,1.688152300000000139e+02
2.190000000000000000e+02,1.691137999999999977e+02
2.200000000000000000e+02,1.694113199999999892e+02
2.210000000000000000e+02,1.697082399999999893e+02
2.220000000000000000e+02,1.700044699999999978e+02
2.230000000000000000e+02,1.703004300000000057e+02
2.240000000000000000e+02,1.705954999999999870e+02
2.250000000000000000e+02,1.708899399999999957e+02
2.260000000000000000e+02,1.711836199999999906e+02
2.270000000000000000e+02,1.714768500000000131e+02
2.280000000000000000e+02,1.717694700000000125e+02
2.290000000000000000e+02,1.720613999999999919e+02
2.300000000000000000e+02,1.723528900000000021e+02
2.310000000000000000e+02,1.726434800000000109e+02
2.320000000000000000e+02,1.729336700000000064e+02
2.330000000000000000e+02,1.732232099999999946e+02
2.340000000000000000e+02,1.735121900000000039e+02
2.350000000000000000e+02,1.738002899999999897e+02
2.360000000000000000e+02,1.740880600000000129e+02
2.370000000000000000e+02,1.743750300000000095e+02
2.380000000000000000e+02,1.746615600000000086e+02
2.390000000000000000e+02,1.749473399999999970e+02
2.400000000000000000e+02,1.752326700000000130e+02
2.410000000000000000e+02,1.755173299999999870e+02
2.420000000000000000e+02,1.758012699999999882e+02
2.430000000000000000e+02,1.760846300000000042e+02
2.440000000000000000e+02,1.763675399999999911e+02
2.450000000000000000e+02,1.766498699999999928e+02
2.460000000000000000e+02,1.769313400000000058e+02
2.470000000000000000e+02,1.772122999999999990e+02
2.480000000000000000e+02,1.774930899999999951e+02
2.490000000000000000e+02,1.777728700000000117e+02
2.500000000000000000e+02,1.780520199999999988e+02
2.510000000000000000e+02,1.783306300000000135e+02
2.520000000000000000e+02,1.786089800000000025e+02
2.530000000000000000e+02,1.788863800000000026e+02
2.540000000000000000e+02,1.791632500000000050e+02
2.550000000000000000e+02,1.794398500000000070e+02
2.560000000000000000e+02,1.797155300000000011e+02
2.570000000000000000e+02,1.799906499999999880e+02
2.580000000000000000e+02,1.802652600000000120e+02
2.590000000000000000e+02,1.805393400000000099e+02
2.600000000000000000e+02,1.808128199999999879e+02
2.610000000000000000e+02,1.810855699999999899e+02
2.620000000000000000e+02,1.813578599999999881e+02
2.630000000000000000e+02,1.816297099999999887e+02
2.640000000000000000e+02,1.819008599999999944e+02
2.650000000000000000e+02,1.821714599999999962e+02
2.660000000000000000e+02,1.824415600000000097e+02
2.670000000000000000e+02,1.827109800000000064e+02
2.680000000000000000e+02,1.829799199999999928e+02
2.690000000000000000e+02,1.832483100000000036e+02
2.700000000000000000e+02,1.835159800000000132e+02
2.710000000000000000e+02,1.837832200000000000e+02
2.720000000000000000e+02,1.840497599999999920e+02
2.730000000000000000e+02,1.843158899999999960e+02
2.740000000000000000e+02,1.845814699999999959e+02
2.750000000000000000e+02,1.848463600000000042e+02
2.760000000000000000e+02,1.851108399999999961e+02
2.770000000000000000e+02,1.853746800000000121e+02
2.780000000000000000e+02,1.856378799999999956e+02
2.790000000000000000e+02,1.859007400000000132e+02
2.800000000000000000e+02,1.861629599999999982e+02
2.810000000000000000e+02,1.864244999999999948e+02
2.820000000000000000e+02,1.866854999999999905e+02
2.830000000000000000e+02,1.869462000000000046e+02
2.840000000000000000e+02,1.872060899999999890e+02
2.850000000000000000e+02,1.874654199999999946e+02
2.860000000000000000e+02,1.877245499999999936e+02
2.870000000000000000e+02,1.879827899999999943e+02
2.880000000000000000e+02,1.882404799999999909e+02
2.890000000000000000e+02,1.884979399999999998e+02
2.900000000000000000e+02,1.887545800000000042e+02
2.910000000000000000e+02,1.890106199999999887e+02
2.920000000000000000e+02,1.892664000000000044e+02
2.930000000000000000e+02,1.895214499999999873e+02
2.940000000000000000e+02,1.897758900000000040e+02
2.950000000000000000e+02,1.900300900000000013e+02
2.960000000000000000e+02,1.902835100000000068e+02
2.970000000000000000e+02,1.905364500000000021e+02
2.980000000000000000e+02,1.907888800000000060e+02
2.990000000000000000e+02,1.910407399999999996e+02
3.000000000000000000e+02,1.912920499999999890e+02
3.010000000000000000e+02,1.915428799999999967e+02
3.020000000000000000e+02,1.917931399999999940e+02
3.030000000000000000e+02,1.920428599999999904e+02
3.040000000000000000e+02,1.922920799999999986e+02
3.050000000000000000e+02,1.925408899999999903e+02
3.060000000000000000e+02,1.927888599999999997e+02
3.070000000000000000e+02,1.930364800000000116e+02
3.080000000000000000e+02,1.932836800000000039e+02
3.090000000000000000e+02,1.935301200000000108e+02
3.100000000000000000e+02,1.937761999999999887e+02
3.110000000000000000e+02,1.940218199999999911e+02
3.120000000000000000e+02,1.942668899999999894e+02
3.130000000000000000e+02,1.945114000000000090e+02
3.140000000000000000e+02,1.947552799999999991e+02
3.150000000000000000e+02,1.949988099999999918e+02
3.160000000000000000e+02,1.952417399999999930e+02
3.170000000000000000e+02,1.954840499999999963e+02
3.180000000000000000e+02,1.957260300000000086e+02
3.190000000000000000e+02,1.959673899999999946e+02
3.200000000000000000e+02,1.962081499999999892e+02
3.210000000000000000e+02,1.964486799999999960e+02
3.220000000000000000e+02,1.966884200000000078e+02
3.230000000000000000e+02,1.969278899999999908e+02
3.240000000000000000e+02,1.971667500000000075e+02
3.250000000000000000e+02,1.974049100000000010e+02
3.260000000000000000e+02,1.976429400000000101e+02
3.270000000000000000e+02,1.978800999999999988e+02
3.280000000000000000e+02,1.981167900000000088e+02
3.290000000000000000e+02,1.983532899999999870e+02
3.300000000000000000e+02,1.985889099999999985e+02
3.310000000000000000e+02,1.988243699999999876e+02
3.320000000000000000e+02,1.990590699999999913e+02
3.330000000000000000e+02,1.992932099999999878e+02
3.340000000000000000e+02,1.995271099999999933e+02
3.350000000000000000e+02,1.997603000000000009e+02
3.360000000000000000e+02,1.999932300000000112e+02
3.370000000000000000e+02,2.002253599999999949e+02
3.380000000000000000e+02,2.004571699999999908e+02
3.390000000000000000e+02,2.006884799999999984e+02
3.400000000000000000e+02,2.009191899999999862e+02
3.410000000000000000e+02,2.011494600000000048e+02
3.420000000000000000e+02,2.013792599999999879e+02
3.430000000000000000e+02,2.016085799999999892e+02
3.440000000000000000e+02,2.018373899999999992e+02
3.450000000000000000e+02,2.020656400000000019e+02
3.460000000000000000e+02,2.022934700000000134e+02
3.470000000000000000e+02,2.025208599999999990e+02
3.480000000000000000e+02,2.027477399999999932e+02
3.490000000000000000e+02,2.029740600000000086e+02
3.500000000000000000e+02,2.032000099999999918e+02
3.510000000000000000e+02,2.034252500000000055e+02
3.520000000000000000e+02,2.036501499999999965e+02
3.530000000000000000e+02,2.038746199999999931e+02
3.540000000000000000e+02,2.040985400000000141e+02
3.550000000000000000e+02,2.043220200000000091e+02
3.560000000000000000e+02,2.045450400000000002e+02
3.570000000000000000e+02,2.047675199999999904e+02
3.580000000000000000e+02,2.049893299999999954e+02
3.590000000000000000e+02,2.052109499999999969e+02
3.600000000000000000e+02,2.054320199999999943e+02
3.610000000000000000e+02,2.056526000000000067e+02
3.620000000000000000e+02,2.058727100000000121e+02
3.630000000000000000e+02,2.060921500000000037e+02
3.640000000000000000e+02,2.063114300000000014e+02
3.650000000000000000e+02,2.065300100000000043e+02
3.660000000000000000e+02,2.067483699999999942e+02
3.670000000000000000e+02,2.069659100000000080e+02
3.680000000000000000e+02,2.071833599999999933e+02
3.690000000000000000e+02,2.074000200000000120e+02
3.700000000000000000e+02,2.076162400000000048e+02
3.710000000000000000e+02,2.078322400000000130e+02
3.720000000000000000e+02,2.080474499999999978e+02
3.730000000000000000e+02,2.082624999999999886e+02
3.740000000000000000e+02,2.084768500000000131e+02
3.750000000000000000e+02,2.086909799999999962e+02
3.760000000000000000e+02,2.089043700000000001e+02
3.770000000000000000e+02,2.091174000000000035e+02
3.780000000000000000e+02,2.093299700000000030e+02
3.790000000000000000e+02,2.095421000000000049e+02
3.800000000000000000e+02,2.097538000000000125e+02
3.810000000000000000e+02,2.099649400000000128e+02
3.820000000000000000e+02,2.101758100000000127e+02
3.830000000000000000e+02,2.103860300000000052e+02
3.840000000000000000e+02,2.105959900000000005e+02
3.850000000000000000e+02,2.108052099999999882e+02
3.860000000000000000e+02,2.110142999999999915e+02
3.870000000000000000e+02,2.112226400000000126e+02
3.880000000000000000e+02,2.114306300000000078e+02
3.890000000000000000e+02,2.116382000000000119e+02
3.900000000000000000e+02,2.118453199999999867e+02
3.910000000000000000e+02,2.120518999999999892e+02
3.920000000000000000e+02,2.122581299999999942e+02
3.930000000000000000e+02,2.124638699999999858e+02
3.940000000000000000e+02,2.126691700000000083e+02
3.950000000000000000e+02,2.128740500000000111e+02
3.960000000000000000e+02,2.130784800000000132e+02
3.970000000000000000e+02,2.132824200000000019e+02
3.980000000000000000e+02,2.134860099999999932e+02
3.990000000000000000e+02,2.136889299999999992e+02
4.000000000000000000e+02,2.138916499999999985e+02
4.010000000000000000e+02,2.140937299999999937e+02
4.020000000000000000e+02,2.142955900000000042e+02
4.030000000000000000e+02,2.144967499999999916e+02
4.040000000000000000e+02,2.146977799999999945e+02
4.050000000000000000e+02,2.148980699999999899e+02
4.060000000000000000e+02,2.150981899999999882e+02
4.070000000000000000e+02,2.152976500000000044e+02
4.080000000000000000e+02,2.154969000000000108e+02
4.090000000000000000e+02,2.156953900000000033e+02
4.100000000000000000e+02,2.158937699999999893e+02
4.110000000000000000e+02,2.160914300000000026e+02
4.120000000000000000e+02,2.162889299999999935e+02
4.130000000000000000e+02,2.164857800000000054e+02
4.140000000000000000e+02,2.166824300000000108e+02
4.150000000000000000e+02,2.168783899999999960e+02
4.160000000000000000e+02,2.170741899999999873e+02
4.170000000000000000e+02,2.172692700000000059e+02
4.180000000000000000e+02,2.174641900000000021e+02
4.190000000000000000e+02,2.176584499999999878e+02
4.200000000000000000e+02,2.178525199999999984e+02
4.210000000000000000e+02,2.180459099999999921e+02
4.220000000000000000e+02,2.182389699999999948e+02
4.230000000000000000e+02,2.184315799999999967e+02
4.240000000000000000e+02,2.186238099999999918e+02
4.250000000000000000e+02,2.188156400000000019e+02
4.260000000000000000e+02,2.190070599999999956e+02
4.270000000000000000e+02,2.191980000000000075e+02
4.280000000000000000e+02,2.193885999999999967e+02
4.290000000000000000e+02,2.195786999999999978e+02
4.300000000000000000e+02,2.197684299999999951e+02
4.310000000000000000e+02,2.199577299999999980e+02
4.320000000000000000e+02,2.201466399999999908e+02
4.330000000000000000e+02,2.203350700000000018e+02
4.340000000000000000e+02,2.205231799999999964e+02
4.350000000000000000e+02,2.207108200000000124e+02
4.360000000000000000e+02,2.208981899999999996e+02
4.370000000000000000e+02,2.210849300000000142e+02
4.380000000000000000e+02,2.212714699999999937e+02
4.390000000000000000e+02,2.214573200000000099e+02
4.400000000000000000e+02,2.216430499999999881e+02
4.410000000000000000e+02,2.218281599999999969e+02
4.420000000000000000e+02,2.220128899999999987e+02
4.430000000000000000e+02,2.221973000000000127e+02
4.440000000000000000e+02,2.223812299999999880e+02
4.450000000000000000e+02,2.225647700000000100e+02
4.460000000000000000e+02,2.227479399999999998e+02
4.470000000000000000e+02,2.229306799999999953e+02
4.480000000000000000e+02,2.231129899999999964e+02
4.490000000000000000e+02,2.232949700000000064e+02
4.500000000000000000e+02,2.234764700000000062e+02
4.510000000000000000e+02,2.236575899999999990e+02
4.520000000000000000e+02,2.238383200000000102e+02
4.530000000000000000e+02,2.240186500000000080e+02
4.540000000000000000e+02,2.241985899999999958e+02
4.550000000000000000e+02,2.243780399999999986e+02
4.560000000000000000e+02,2.245572799999999916e+02
4.570000000000000000e+02,2.247358900000000119e+02
4.580000000000000000e+02,2.249143699999999910e+02
4.590000000000000000e+02,2.250921899999999880e+02
4.600000000000000000e+02,2.252698499999999910e+02
4.610000000000000000e+02,2.254470499999999902e+02
4.620000000000000000e+02,2.256238400000000013e+02
4.630000000000000000e+02,2.258001899999999864e+02
4.640000000000000000e+02,2.259762299999999868e+02
4.650000000000000000e+02,2.261518700000000024e+02
4.660000000000000000e+02,2.263269500000000107e+02
4.670000000000000000e+02,2.265018799999999999e+02
4.680000000000000000e+02,2.266761600000000101e+02
4.690000000000000000e+02,2.268503000000000043e+02
4.700000000000000000e+02,2.270238500000000101e+02
4.710000000000000000e+02,2.271972199999999873e+02
4.720000000000000000e+02,2.273701499999999953e+02
4.730000000000000000e+02,2.275425700000000120e+02
4.740000000000000000e+02,2.277148300000000063e+02
4.750000000000000000e+02,2.278864399999999932e+02
4.760000000000000000e+02,2.280579500000000053e+02
4.770000000000000000e+02,2.282288100000000099e+02
4.780000000000000000e+02,2.283994899999999859e+02
4.790000000000000000e+02,2.285696100000000115e+02
4.800000000000000000e+02,2.287395300000000020e+02
4.810000000000000000e+02,2.289089099999999917e+02
4.820000000000000000e+02,2.290779899999999998e+02
4.830000000000000000e+02,2.292468000000000075e+02
4.840000000000000000e+02,2.294149899999999889e+02
4.850000000000000000e+02,2.295830799999999954e+02
4.860000000000000000e+02,2.297505199999999945e+02
4.870000000000000000e+02,2.299177999999999997e+02
4.880000000000000000e+02,2.300845899999999915e+02
4.890000000000000000e+02,2.302510499999999922e+02
4.900000000000000000e+02,2.304172499999999957e+02
4.910000000000000000e+02,2.305828700000000140e+02
4.920000000000000000e+02,2.307483400000000131e+02
4.930000000000000000e+02,2.309132400000000018e+02
4.940000000000000000e+02,2.310778500000000122e+02
4.950000000000000000e+02,2.312420799999999872e+02
4.960000000000000000e+02,2.314059000000000026e+02
4.970000000000000000e+02,2.315694100000000049e+02
4.980000000000000000e+02,2.317325299999999970e+02
4.990000000000000000e+02,2.318954200000000014e+02
5.000000000000000000e+02,2.320577999999999861e+02
5.010000000000000000e+02,2.322198199999999986e+02
5.020000000000000000e+02,2.323814700000000073e+02
5.030000000000000000e+02,2.325427899999999966e+02
5.040000000000000000e+02,2.327038400000000138e+02
5.050000000000000000e+02,2.328643500000000017e+02
5.060000000000000000e+02,2.330245700000000113e+02
5.070000000000000000e+02,2.331844600000000014e+02
5.080000000000000000e+02,2.333439500000000066e+02
5.090000000000000000e+02,2.335031299999999987e+02
5.100000000000000000e+02,2.336619300000000123e+02
5.110000000000000000e+02,2.338203399999999874e+02
5.120000000000000000e+02,2.339784400000000062e+02
5.130000000000000000e+02,2.341361100000000022e+02
5.140000000000000000e+02,2.342934700000000134e+02
5.150000000000000000e+02,2.344505299999999863e+02
5.160000000000000000e+02,2.346071799999999996e+02
5.170000000000000000e+02,2.347634700000000123e+02
5.180000000000000000e+02,2.349194200000000023e+02
5.190000000000000000e+02,2.350750099999999918e+02
5.200000000000000000e+02,2.352302599999999870e+02
5.210000000000000000e+02,2.353851799999999912e+02
5.220000000000000000e+02,2.355397199999999884e+02
5.230000000000000000e+02,2.356938499999999976e+02
5.240000000000000000e+02,2.358477000000000032e+02
5.250000000000000000e+02,2.360011900000000082e+02
5.260000000000000000e+02,2.361541699999999935e+02
5.270000000000000000e+02,2.363070500000000038e+02
5.280000000000000000e+02,2.364595300000000009e+02
5.290000000000000000e+02,2.366115000000000066e+02
5.300000000000000000e+02,2.367633500000000026e+02
5.310000000000000000e+02,2.369146100000000104e+02
5.320000000000000000e+02,2.370657300000000021e+02
5.330000000000000000e+02,2.372165400000000091e+02
5.340000000000000000e+02,2.373667900000000088e+02
5.350000000000000000e+02,2.375168799999999862e+02
5.360000000000000000e+02,2.376665600000000040e+02
5.370000000000000000e+02,2.378158899999999960e+02
5.380000000000000000e+02,2.379649000000000001e+02
5.390000000000000000e+02,2.381134600000000034e+02
5.400000000000000000e+02,2.382618600000000129e+02
5.410000000000000000e+02,2.384098400000000026e+02
5.420000000000000000e+02,2.385573400000000106e+02
5.430000000000000000e+02,2.387047000000000025e+02
5.440000000000000000e+02,2.388514700000000062e+02
5.450000000000000000e+02,2.389982100000000003e+02
5.460000000000000000e+02,2.391445200000000000e+02
5.470000000000000000e+02,2.392903100000000052e+02
5.480000000000000000e+02,2.394360200000000134e+02
5.490000000000000000e+02,2.395812799999999925e+02
5.500000000000000000e+02,2.397261000000000024e+02
5.510000000000000000e+02,2.398708000000000027e+02
5.520000000000000000e+02,2.400149700000000053e+02
5.530000000000000000e+02,2.401588600000000042e+02
5.540000000000000000e+02,2.403025700000000029e+02
5.550000000000000000e+02,2.404456900000000132e+02
5.560000000000000000e+02,2.405886800000000108e+02
5.570000000000000000e+02,2.407313100000000077e+02
5.580000000000000000e+02,2.408734599999999944e+02
5.590000000000000000e+02,2.410154400000000123e+02
5.600000000000000000e+02,2.411569800000000043e+02
5.610000000000000000e+02,2.412982000000000085e+02
5.620000000000000000e+02,2.414392100000000028e+02
5.630000000000000000e+02,2.415797900000000027e+02
5.640000000000000000e+02,2.417200300000000084e+02
5.650000000000000000e+02,2.418600500000000011e+02
5.660000000000000000e+02,2.419996199999999931e+02
5.670000000000000000e+02,2.421388499999999908e+02
5.680000000000000000e+02,2.422778199999999913e+02
5.690000000000000000e+02,2.424164399999999944e+02
5.700000000000000000e+02,2.425548400000000129e+02
5.710000000000000000e+02,2.426927599999999927e+02
5.720000000000000000e+02,2.428304100000000005e+02
5.730000000000000000e+02,2.429678299999999922e+02
5.740000000000000000e+02,2.431047499999999957e+02
5.750000000000000000e+02,2.432414100000000019e+02
5.760000000000000000e+02,2.433779000000000110e+02
5.770000000000000000e+02,2.435138699999999972e+02
5.780000000000000000e+02,2.436495799999999861e+02
5.790000000000000000e+02,2.437850999999999999e+02
5.800000000000000000e+02,2.439200899999999876e+02
5.810000000000000000e+02,2.440548400000000129e+02
5.820000000000000000e+02,2.441893000000000029e+02
5.830000000000000000e+02,2.443234099999999955e+02
5.840000000000000000e+02,2.444572300000000098e+02
5.850000000000000000e+02,2.445906999999999982e+02
5.860000000000000000e+02,2.447238499999999988e+02
5.870000000000000000e+02,2.448567199999999957e+02
5.880000000000000000e+02,2.449892399999999952e+02
5.890000000000000000e+02,2.451214400000000069e+02
5.900000000000000000e+02,2.452533899999999960e+02
5.910000000000000000e+02,2.453849800000000130e+02
5.920000000000000000e+02,2.455162500000000136e+02
5.930000000000000000e+02,2.456472500000000139e+02
5.940000000000000000e+02,2.457778900000000135e+02
5.950000000000000000e+02,2.459082200000000000e+02
5.960000000000000000e+02,2.460382400000000018e+02
5.970000000000000000e+02,2.461679399999999873e+02
5.980000000000000000e+02,2.462973599999999976e+02
5.990000000000000000e+02,2.464264499999999884e+02