# Time [s], Temperature [C]
1.000000000000000000e+00,2.499997300000000067e+01
2.000000000000000000e+00,3.278251600000000110e+01
3.000000000000000000e+00,3.749743699999999791e+01
4.000000000000000000e+00,4.135051700000000352e+01
5.000000000000000000e+00,4.460610199999999992e+01
6.000000000000000000e+00,4.748115200000000158e+01
7.000000000000000000e+00,5.007048799999999744e+01
8.000000000000000000e+00,5.243999900000000025e+01
9.000000000000000000e+00,5.463304099999999863e+01
1.000000000000000000e+01,5.667999600000000271e+01
1.100000000000000000e+01,5.860371800000000064e+01
1.200000000000000000e+01,6.042182499999999834e+01
1.300000000000000000e+01,6.214755600000000157e+01
1.400000000000000000e+01,6.379252600000000228e+01
1.500000000000000000e+01,6.536521899999999619e+01
1.600000000000000000e+01,6.687305499999999370e+01
1.700000000000000000e+01,6.832235000000000014e+01
1.800000000000000000e+01,6.971836100000000158e+01
1.900000000000000000e+01,7.106619999999999493e+01
2.000000000000000000e+01,7.236921700000000612e+01
2.100000000000000000e+01,7.363082099999999741e+01
2.200000000000000000e+01,7.485435499999999820e+01
2.300000000000000000e+01,7.604251100000000463e+01
2.400000000000000000e+01,7.719737999999999545e+01
2.500000000000000000e+01,7.832113599999999565e+01
2.600000000000000000e+01,7.941585499999999342e+01
2.700000000000000000e+01,8.048310100000000489e+01
2.800000000000000000e+01,8.152492499999999609e+01
2.900000000000000000e+01,8.254197700000000282e+01
3.000000000000000000e+01,8.353578199999999754e+01
3.100000000000000000e+01,8.450803399999999499e+01
3.200000000000000000e+01,8.545910600000000557e+01
3.300000000000000000e+01,8.639067099999999755e+01
3.400000000000000000e+01,8.730332199999999432e+01
3.500000000000000000e+01,8.819767000000000223e+01
3.600000000000000000e+01,8.907501200000000097e+01
3.700000000000000000e+01,8.993580599999999947e+01
3.800000000000000000e+01,9.078098300000000620e+01
3.900000000000000000e+01,9.161069500000000687e+01
4.000000000000000000e+01,9.242578899999999464e+01
4.100000000000000000e+01,9.322716499999999940e+01
4.200000000000000000e+01,9.401498399999999833e+01
4.300000000000000000e+01,9.478989400000000387e+01
4.400000000000000000e+01,9.555242900000000361e+01
4.500000000000000000e+01,9.630288699999999835e+01
4.600000000000000000e+01,9.704191600000000051e+01
4.700000000000000000e+01,9.776968399999999804e+01
4.800000000000000000e+01,9.848663299999999765e+01
4.900000000000000000e+01,9.919329100000000210e+01
5.000000000000000000e+01,9.988975499999999386e+01
5.100000000000000000e+01,1.005765499999999975e+02
5.200000000000000000e+01,1.012536599999999964e+02
5.300000000000000000e+01,1.019217799999999983e+02
5.400000000000000000e+01,1.025812200000000018e+02
5.500000000000000000e+01,1.032320399999999978e+02
5.600000000000000000e+01,1.038743599999999958e+02
5.700000000000000000e+01,1.045088599999999985e+02
5.800000000000000000e+01,1.051355400000000060e+02
5.900000000000000000e+01,1.057544900000000041e+02
6.000000000000000000e+01,1.063664700000000067e+02
6.100000000000000000e+01,1.069708300000000065e+02
6.200000000000000000e+01,1.075687700000000007e+02
6.300000000000000000e+01,1.081595599999999990e+02
6.400000000000000000e+01,1.087442000000000064e+02
6.500000000000000000e+01,1.093221900000000062e+02
6.600000000000000000e+01,1.098943600000000060e+02
6.700000000000000000e+01,1.104600800000000049e+02
6.800000000000000000e+01,1.110204200000000014e+02
6.900000000000000000e+01,1.115746699999999976e+02
7.000000000000000000e+01,1.121237600000000043e+02
7.100000000000000000e+01,1.126673700000000053e+02
7.200000000000000000e+01,1.132057400000000058e+02
7.300000000000000000e+01,1.137392600000000016e+02
7.400000000000000000e+01,1.142676400000000001e+02
7.500000000000000000e+01,1.147912599999999941e+02
7.600000000000000000e+01,1.153103700000000060e+02
7.700000000000000000e+01,1.158247000000000071e+02
7.800000000000000000e+01,1.163345599999999962e+02
7.900000000000000000e+01,1.168403200000000055e+02
8.000000000000000000e+01,1.173417699999999968e+02
8.100000000000000000e+01,1.178392000000000053e+02
8.200000000000000000e+01,1.183324900000000071e+02
8.300000000000000000e+01,1.188219699999999932e+02
8.400000000000000000e+01,1.193077799999999939e+02
8.500000000000000000e+01,1.197898699999999934e+02
8.600000000000000000e+01,1.202682300000000026e+02
8.700000000000000000e+01,1.207430399999999935e+02
8.800000000000000000e+01,1.212145100000000042e+02
8.900000000000000000e+01,1.216827100000000002e+02
9.000000000000000000e+01,1.221476600000000019e+02
9.100000000000000000e+01,1.226092699999999951e+02
9.200000000000000000e+01,1.230677900000000022e+02
9.300000000000000000e+01,1.235232900000000029e+02
9.400000000000000000e+01,1.239758499999999941e+02
9.500000000000000000e+01,1.244256500000000045e+02
9.600000000000000000e+01,1.248726400000000041e+02
9.700000000000000000e+01,1.253166400000000067e+02
9.800000000000000000e+01,1.257578699999999969e+02
9.900000000000000000e+01,1.261966199999999958e+02
1.000000000000000000e+02,1.266328500000000048e+02
1.010000000000000000e+02,1.270666700000000020e+02
1.020000000000000000e+02,1.274979900000000015e+02
1.030000000000000000e+02,1.279268699999999939e+02
1.040000000000000000e+02,1.283533799999999871e+02
1.050000000000000000e+02,1.287773099999999999e+02
1.060000000000000000e+02,1.291991999999999905e+02
1.070000000000000000e+02,1.296189899999999966e+02
1.080000000000000000e+02,1.300365899999999897e+02
1.090000000000000000e+02,1.304518899999999917e+02
1.100000000000000000e+02,1.308653700000000129e+02
1.110000000000000000e+02,1.312767800000000022e+02
1.120000000000000000e+02,1.316861600000000010e+02
1.130000000000000000e+02,1.320936100000000124e+02
1.140000000000000000e+02,1.324991799999999955e+02
1.150000000000000000e+02,1.329028600000000040e+02
1.160000000000000000e+02,1.333047799999999938e+02
1.170000000000000000e+02,1.337048499999999933e+02
1.180000000000000000e+02,1.341031600000000026e+02
1.190000000000000000e+02,1.344998199999999997e+02
1.200000000000000000e+02,1.348945200000000000e+02
1.210000000000000000e+02,1.352876699999999914e+02
1.220000000000000000e+02,1.356792900000000088e+02
1.230000000000000000e+02,1.360692899999999952e+02
1.240000000000000000e+02,1.364577199999999948e+02
1.250000000000000000e+02,1.368446800000000110e+02
1.260000000000000000e+02,1.372300899999999899e+02
1.270000000000000000e+02,1.376140000000000043e+02
1.280000000000000000e+02,1.379964099999999974e+02
1.290000000000000000e+02,1.383772999999999911e+02
1.300000000000000000e+02,1.387567899999999952e+02
1.310000000000000000e+02,1.391350999999999942e+02
1.320000000000000000e+02,1.395118699999999876e+02
1.330000000000000000e+02,1.398873100000000136e+02
1.340000000000000000e+02,1.402614900000000091e+02
1.350000000000000000e+02,1.406343099999999993e+02
1.360000000000000000e+02,1.410060599999999909e+02
1.370000000000000000e+02,1.413764299999999992e+02
1.380000000000000000e+02,1.417455099999999959e+02
1.390000000000000000e+02,1.421133299999999906e+02
1.400000000000000000e+02,1.424799800000000118e+02
1.410000000000000000e+02,1.428454099999999869e+02
1.420000000000000000e+02,1.432096400000000074e+02
1.430000000000000000e+02,1.435727699999999913e+02
1.440000000000000000e+02,1.439347799999999893e+02
1.450000000000000000e+02,1.442957000000000107e+02
1.460000000000000000e+02,1.446556400000000053e+02
1.470000000000000000e+02,1.450142700000000104e+02
1.480000000000000000e+02,1.453718100000000106e+02
1.490000000000000000e+02,1.457283299999999997e+02
1.500000000000000000e+02,1.460837400000000059e+02
1.510000000000000000e+02,1.464380999999999915e+02
1.520000000000000000e+02,1.467914600000000007e+02
1.530000000000000000e+02,1.471437699999999893e+02
1.540000000000000000e+02,1.474952700000000050e+02
1.550000000000000000e+02,1.478456999999999937e+02
1.560000000000000000e+02,1.481952200000000062e+02
1.570000000000000000e+02,1.485435600000000136e+02
1.580000000000000000e+02,1.488910199999999975e+02
1.590000000000000000e+02,1.492374900000000082e+02
1.600000000000000000e+02,1.495829799999999921e+02
1.610000000000000000e+02,1.499275700000000029e+02
1.620000000000000000e+02,1.502711899999999901e+02
1.630000000000000000e+02,1.506139200000000073e+02
1.640000000000000000e+02,1.509562200000000018e+02
1.650000000000000000e+02,1.512973299999999881e+02
1.660000000000000000e+02,1.516374800000000107e+02
1.670000000000000000e+02,1.519767300000000034e+02
1.680000000000000000e+02,1.523150599999999883e+02
1.690000000000000000e+02,1.526525100000000066e+02
1.700000000000000000e+02,1.529891399999999919e+02
1.710000000000000000e+02,1.533250099999999918e+02
1.720000000000000000e+02,1.536598500000000058e+02
1.730000000000000000e+02,1.539941599999999937e+02
1.740000000000000000e+02,1.543274499999999989e+02
1.750000000000000000e+02,1.546599400000000060e+02
1.760000000000000000e+02,1.549916699999999992e+02
1.770000000000000000e+02,1.553226500000000101e+02
1.780000000000000000e+02,1.556526299999999878e+02
1.790000000000000000e+02,1.559819500000000119e+02
1.800000000000000000e+02,1.563106200000000001e+02
1.810000000000000000e+02,1.566383500000000026e+02
1.820000000000000000e+02,1.569652900000000102e+02
1.830000000000000000e+02,1.572915000000000134e+02
1.840000000000000000e+02,1.576168399999999963e+02
1.850000000000000000e+02,1.579415300000000002e+02
1.860000000000000000e+02,1.582653500000000122e+02
1.870000000000000000e+02,1.585885800000000074e+02
1.880000000000000000e+02,1.589109599999999887e+02
1.890000000000000000e+02,1.592326700000000130e+02
1.900000000000000000e+02,1.595534700000000043e+02
1.910000000000000000e+02,1.598736000000000104e+02
1.920000000000000000e+02,1.601930099999999868e+02
1.930000000000000000e+02,1.605118899999999940e+02
1.940000000000000000e+02,1.608300299999999936e+02
1.950000000000000000e+02,1.611472300000000075e+02
1.960000000000000000e+02,1.614637299999999982e+02
1.970000000000000000e+02,1.617795299999999941e+02
1.980000000000000000e+02,1.620945900000000108e+02
1.990000000000000000e+02,1.624093200000000081e+02
2.000000000000000000e+02,1.627231600000000071e+02
2.010000000000000000e+02,1.630361900000000048e+02
2.020000000000000000e+02,1.633484799999999950e+02
2.030000000000000000e+02,1.636600799999999936e+02
2.040000000000000000e+02,1.639712499999999977e+02
2.050000000000000000e+02,1.642815200000000004e+02
2.060000000000000000e+02,1.645911999999999864e+02
2.070000000000000000e+02,1.649001199999999869e+02
2.080000000000000000e+02,1.652084399999999960e+02
2.090000000000000000e+02,1.655159099999999910e+02
2.100000000000000000e+02,1.658229200000000105e+02
2.110000000000000000e+02,1.661291500000000099e+02
2.120000000000000000e+02,1.664347500000000082e+02
2.130000000000000000e+02,1.667397200000000055e+02
2.140000000000000000e+02,1.670438800000000015e+02
2.150000000000000000e+02,1.673476400000000126e+02
2.160000000000000000e+02,1.676505699999999877e+02
2.170000000000000000e+02,1.679529599999999903e+02
2.180000000000000000e+02,1.682545900000000074e+02
2.190000000000000000e+02,1.685557100000000048e+02
2.200000000000000000e+02,1.688560300000000041e+02
2.210000000000000000e+02,1.691558499999999867e+02
2.220000000000000000e+02,1.694549100000000124e+02
2.230000000000000000e+02,1.697533599999999865e+02
2.240000000000000000e+02,1.700513200000000040e+02
2.250000000000000000e+02,1.703485699999999952e+02
2.260000000000000000e+02,1.706449700000000007e+02
2.270000000000000000e+02,1.709408400000000086e+02
2.280000000000000000e+02,1.712362699999999904e+02
2.290000000000000000e+02,1.715310499999999934e+02
2.300000000000000000e+02,1.718250600000000077e+02
2.310000000000000000e+02,1.721183900000000051e+02
2.320000000000000000e+02,1.724110699999999952e+02
2.330000000000000000e+02,1.727035199999999975e+02
2.340000000000000000e+02,1.729950900000000047e+02
2.350000000000000000e+02,1.732859500000000139e+02
2.360000000000000000e+02,1.735762200000000064e+02
2.370000000000000000e+02,1.738661700000000110e+02
2.380000000000000000e+02,1.741552900000000079e+02
2.390000000000000000e+02,1.744438000000000102e+02
2.400000000000000000e+02,1.747315999999999860e+02
2.410000000000000000e+02,1.750190299999999866e+02
2.420000000000000000e+02,1.753056799999999953e+02
2.430000000000000000e+02,1.755917499999999905e+02
2.440000000000000000e+02,1.758772400000000005e+02
2.450000000000000000e+02,1.761622199999999907e+02
2.460000000000000000e+02,1.764464999999999861e+02
2.470000000000000000e+02,1.767301500000000090e+02
2.480000000000000000e+02,1.770133099999999899e+02
2.490000000000000000e+02,1.772958500000000015e+02
2.500000000000000000e+02,1.775777099999999962e+02
2.510000000000000000e+02,1.778591199999999901e+02
2.520000000000000000e+02,1.781397699999999986e+02
2.530000000000000000e+02,1.784200099999999907e+02
2.540000000000000000e+02,1.786995699999999943e+02
2.550000000000000000e+02,1.789786100000000033e+02
2.560000000000000000e+02,1.792570599999999956e+02
2.570000000000000000e+02,1.795348700000000122e+02
2.580000000000000000e+02,1.798121199999999931e+02
2.590000000000000000e+02,1.800886700000000076e+02
2.600000000000000000e+02,1.803649000000000058e+02
2.610000000000000000e+02,1.806404300000000092e+02
2.620000000000000000e+02,1.809151899999999955e+02
2.630000000000000000e+02,1.811895299999999907e+02
2.640000000000000000e+02,1.814634200000000135e+02
2.650000000000000000e+02,1.817366499999999974e+02
2.660000000000000000e+02,1.820091700000000117e+02
2.670000000000000000e+02,1.822813400000000001e+02
2.680000000000000000e+02,1.825529200000000003e+02
2.690000000000000000e+02,1.828237499999999898e+02
2.700000000000000000e+02,1.830939899999999909e+02
2.710000000000000000e+02,1.833639699999999948e+02
2.720000000000000000e+02,1.836331600000000037e+02
2.730000000000000000e+02,1.839017299999999864e+02
2.740000000000000000e+02,1.841700099999999907e+02
2.750000000000000000e+02,1.844375799999999970e+02
2.760000000000000000e+02,1.847044799999999896e+02
2.770000000000000000e+02,1.849710100000000068e+02
2.780000000000000000e+02,1.852368500000000040e+02
2.790000000000000000e+02,1.855021500000000003e+02
2.800000000000000000e+02,1.857668899999999894e+02
2.810000000000000000e+02,1.860311599999999999e+02
2.820000000000000000e+02,1.862948000000000093e+02
2.830000000000000000e+02,1.865579099999999926e+02
2.840000000000000000e+02,1.868204800000000034e+02
2.850000000000000000e+02,1.870824399999999912e+02
2.860000000000000000e+02,1.873439199999999971e+02
2.870000000000000000e+02,1.876048700000000053e+02
2.880000000000000000e+02,1.878651999999999873e+02
2.890000000000000000e+02,1.881250300000000095e+02
2.900000000000000000e+02,1.883843400000000088e+02
2.910000000000000000e+02,1.886430200000000070e+02
2.920000000000000000e+02,1.889012099999999919e+02
2.930000000000000000e+02,1.891589400000000012e+02
2.940000000000000000e+02,1.894160200000000032e+02
2.950000000000000000e+02,1.896726099999999917e+02
2.960000000000000000e+02,1.899286999999999921e+02
2.970000000000000000e+02,1.901841300000000103e+02
2.980000000000000000e+02,1.904390999999999963e+02
2.990000000000000000e+02,1.906936000000000035e+02
3.000000000000000000e+02,1.909475099999999941e+02
3.010000000000000000e+02,1.912006800000000055e+02
3.020000000000000000e+02,1.914536099999999976e+02
3.030000000000000000e+02,1.917059600000000046e+02
3.040000000000000000e+02,1.919575499999999977e+02
3.050000000000000000e+02,1.922089100000000030e+02
3.060000000000000000e+02,1.924596899999999948e+02
3.070000000000000000e+02,1.927096999999999980e+02
3.080000000000000000e+02,1.929594600000000071e+02
3.090000000000000000e+02,1.932086500000000058e+02
3.100000000000000000e+02,1.934571100000000001e+02
3.110000000000000000e+02,1.937053799999999910e+02
3.120000000000000000e+02,1.939528999999999996e+02
3.130000000000000000e+02,1.941998399999999947e+02
3.140000000000000000e+02,1.944465600000000052e+02
3.150000000000000000e+02,1.946925200000000018e+02
3.160000000000000000e+02,1.949379000000000133e+02
3.170000000000000000e+02,1.951830400000000054e+02
3.180000000000000000e+02,1.954274599999999964e+02
3.190000000000000000e+02,1.956715199999999868e+02
3.200000000000000000e+02,1.959149199999999951e+02
3.210000000000000000e+02,1.961577900000000056e+02
3.220000000000000000e+02,1.964003099999999904e+02
3.230000000000000000e+02,1.966421699999999930e+02
3.240000000000000000e+02,1.968835899999999981e+02
3.250000000000000000e+02,1.971244499999999960e+02
3.260000000000000000e+02,1.973648399999999867e+02
3.270000000000000000e+02,1.976047399999999925e+02
3.280000000000000000e+02,1.978440999999999974e+02
3.290000000000000000e+02,1.980829799999999921e+02
3.300000000000000000e+02,1.983214999999999861e+02
3.310000000000000000e+02,1.985592699999999979e+02
3.320000000000000000e+02,1.987966800000000092e+02
3.330000000000000000e+02,1.990335499999999911e+02
3.340000000000000000e+02,1.992698499999999910e+02
3.350000000000000000e+02,1.995057700000000125e+02
3.360000000000000000e+02,1.997411700000000110e+02
3.370000000000000000e+02,1.999761000000000024e+02
3.380000000000000000e+02,2.002105699999999899e+02
3.390000000000000000e+02,2.004444900000000018e+02
3.400000000000000000e+02,2.006777999999999906e+02
3.410000000000000000e+02,2.009108099999999979e+02
3.420000000000000000e+02,2.011432499999999948e+02
3.430000000000000000e+02,2.013752100000000098e+02
3.440000000000000000e+02,2.016067500000000052e+02
3.450000000000000000e+02,2.018376199999999869e+02
3.460000000000000000e+02,2.020681800000000123e+02
3.470000000000000000e+02,2.022982000000000085e+02
3.480000000000000000e+02,2.025277399999999943e+02
3.490000000000000000e+02,2.027568100000000015e+02
3.500000000000000000e+02,2.029852600000000109e+02
3.510000000000000000e+02,2.032134900000000073e+02
3.520000000000000000e+02,2.034409799999999962e+02
3.530000000000000000e+02,2.036682299999999941e+02
3.540000000000000000e+02,2.038949299999999880e+02
3.550000000000000000e+02,2.041209399999999903e+02
3.560000000000000000e+02,2.043468000000000018e+02
3.570000000000000000e+02,2.045719499999999869e+02
3.580000000000000000e+02,2.047967700000000093e+02
3.590000000000000000e+02,2.050209800000000087e+02
3.600000000000000000e+02,2.052447400000000073e+02
3.610000000000000000e+02,2.054681999999999960e+02
3.620000000000000000e+02,2.056910399999999868e+02
3.630000000000000000e+02,2.059135300000000086e+02
3.640000000000000000e+02,2.061353599999999915e+02
3.650000000000000000e+02,2.063570300000000088e+02
3.660000000000000000e+02,2.065779599999999903e+02
3.670000000000000000e+02,2.067984299999999962e+02
3.680000000000000000e+02,2.070186500000000080e+02
3.690000000000000000e+02,2.072381900000000030e+02
3.700000000000000000e+02,2.074574900000000071e+02
3.710000000000000000e+02,2.076761500000000069e+02
3.720000000000000000e+02,2.078945500000000095e+02
3.730000000000000000e+02,2.081122300000000109e+02
3.740000000000000000e+02,2.083295899999999961e+02
3.750000000000000000e+02,2.085464599999999962e+02
3.760000000000000000e+02,2.087629200000000083e+02
3.770000000000000000e+02,2.089789399999999944e+02
3.780000000000000000e+02,2.091944699999999955e+02
3.790000000000000000e+02,2.094096700000000055e+02
3.800000000000000000e+02,2.096242100000000050e+02
3.810000000000000000e+02,2.098383900000000040e+02
3.820000000000000000e+02,2.100521200000000022e+02
3.830000000000000000e+02,2.102655000000000030e+02
3.840000000000000000e+02,2.104783600000000092e+02
3.850000000000000000e+02,2.106907500000000084e+02
3.860000000000000000e+02,2.109027399999999943e+02
3.870000000000000000e+02,2.111142999999999859e+02
3.880000000000000000e+02,2.113254100000000051e+02
3.890000000000000000e+02,2.115360699999999952e+02
3.900000000000000000e+02,2.117463799999999878e+02
3.910000000000000000e+02,2.119560899999999890e+02
3.920000000000000000e+02,2.121654100000000085e+02
3.930000000000000000e+02,2.123742799999999988e+02
3.940000000000000000e+02,2.125827500000000043e+02
3.950000000000000000e+02,2.127908199999999965e+02
3.960000000000000000e+02,2.129984399999999880e+02
3.970000000000000000e+02,2.132056100000000072e+02
3.980000000000000000e+02,2.134124300000000005e+02
3.990000000000000000e+02,2.136187600000000089e+02
4.000000000000000000e+02,2.138246900000000039e+02
4.010000000000000000e+02,2.140301499999999919e+02
4.020000000000000000e+02,2.142351999999999919e+02
4.030000000000000000e+02,2.144396700000000067e+02
4.040000000000000000e+02,2.146440000000000055e+02
4.050000000000000000e+02,2.148476699999999937e+02
4.060000000000000000e+02,2.150511199999999974e+02
4.070000000000000000e+02,2.152539800000000128e+02
4.080000000000000000e+02,2.154565900000000056e+02
4.090000000000000000e+02,2.156585499999999911e+02
4.100000000000000000e+02,2.158603200000000015e+02
4.110000000000000000e+02,2.160614799999999889e+02
4.120000000000000000e+02,2.162624099999999885e+02
4.130000000000000000e+02,2.164627700000000061e+02
4.140000000000000000e+02,2.166629000000000076e+02
4.150000000000000000e+02,2.168623800000000017e+02
4.160000000000000000e+02,2.170616899999999987e+02
4.170000000000000000e+02,2.172603599999999915e+02
4.180000000000000000e+02,2.174588200000000029e+02
4.190000000000000000e+02,2.176567100000000039e+02
4.200000000000000000e+02,2.178543500000000108e+02
4.210000000000000000e+02,2.180513799999999947e+02
4.220000000000000000e+02,2.182482500000000130e+02
4.230000000000000000e+02,2.184444699999999955e+02
4.240000000000000000e+02,2.186404699999999934e+02
4.250000000000000000e+02,2.188358599999999967e+02
4.260000000000000000e+02,2.190310499999999934e+02
4.270000000000000000e+02,2.192256299999999953e+02
4.280000000000000000e+02,2.194200600000000065e+02
4.290000000000000000e+02,2.196138599999999883e+02
4.300000000000000000e+02,2.198074499999999887e+02
4.310000000000000000e+02,2.200004900000000134e+02
4.320000000000000000e+02,2.201932799999999872e+02
4.330000000000000000e+02,2.203854699999999980e+02
4.340000000000000000e+02,2.205775099999999895e+02
4.350000000000000000e+02,2.207689200000000085e+02
4.360000000000000000e+02,2.209601099999999860e+02
4.370000000000000000e+02,2.211507400000000132e+02
4.380000000000000000e+02,2.213411399999999958e+02
4.390000000000000000e+02,2.215309300000000121e+02
4.400000000000000000e+02,2.217205800000000124e+02
4.410000000000000000e+02,2.219096199999999897e+02
4.420000000000000000e+02,2.220984500000000139e+02
4.430000000000000000e+02,2.222867400000000089e+02
4.440000000000000000e+02,2.224747900000000129e+02
4.450000000000000000e+02,2.226622500000000002e+02
4.460000000000000000e+02,2.228495499999999936e+02
4.470000000000000000e+02,2.230362399999999923e+02
4.480000000000000000e+02,2.232227200000000096e+02
4.490000000000000000e+02,2.234086499999999944e+02
4.500000000000000000e+02,2.235943599999999947e+02
4.510000000000000000e+02,2.237795299999999941e+02
4.520000000000000000e+02,2.239643700000000024e+02
4.530000000000000000e+02,2.241488300000000038e+02
4.540000000000000000e+02,2.243328600000000108e+02
4.550000000000000000e+02,2.245166000000000111e+02
4.560000000000000000e+02,2.246998700000000042e+02
4.570000000000000000e+02,2.248827799999999968e+02
4.580000000000000000e+02,2.250653399999999920e+02
4.590000000000000000e+02,2.252475000000000023e+02
4.600000000000000000e+02,2.254292299999999898e+02
4.610000000000000000e+02,2.256107499999999959e+02
4.620000000000000000e+02,2.257916600000000074e+02
4.630000000000000000e+02,2.259723400000000026e+02
4.640000000000000000e+02,2.261525399999999877e+02
4.650000000000000000e+02,2.263323699999999974e+02
4.660000000000000000e+02,2.265118300000000033e+02
4.670000000000000000e+02,2.266908999999999992e+02
4.680000000000000000e+02,2.268695999999999913e+02
4.690000000000000000e+02,2.270478799999999922e+02
4.700000000000000000e+02,2.272258600000000115e+02
4.710000000000000000e+02,2.274034299999999860e+02
4.720000000000000000e+02,2.275806300000000135e+02
4.730000000000000000e+02,2.277574899999999900e+02
4.740000000000000000e+02,2.279339300000000037e+02
4.750000000000000000e+02,2.281099700000000041e+02
4.760000000000000000e+02,2.282856400000000008e+02
4.770000000000000000e+02,2.284609399999999937e+02
4.780000000000000000e+02,2.286357999999999890e+02
4.790000000000000000e+02,2.288103600000000029e+02
4.800000000000000000e+02,2.289844799999999907e+02
4.810000000000000000e+02,2.291582300000000032e+02
4.820000000000000000e+02,2.293316499999999962e+02
4.830000000000000000e+02,2.295046499999999980e+02
4.840000000000000000e+02,2.296772799999999961e+02
4.850000000000000000e+02,2.298495299999999872e+02
4.860000000000000000e+02,2.300214499999999873e+02
4.870000000000000000e+02,2.301929199999999867e+02
4.880000000000000000e+02,2.303640699999999981e+02
4.890000000000000000e+02,2.305347899999999868e+02
4.900000000000000000e+02,2.307051500000000033e+02
4.910000000000000000e+02,2.308751800000000003e+02
4.920000000000000000e+02,2.310448000000000093e+02
4.930000000000000000e+02,2.312140400000000113e+02
4.940000000000000000e+02,2.313828900000000033e+02
4.950000000000000000e+02,2.315514100000000042e+02
4.960000000000000000e+02,2.317194700000000012e+02
4.970000000000000000e+02,2.318872200000000134e+02
4.980000000000000000e+02,2.320545700000000124e+02
4.990000000000000000e+02,2.322215099999999950e+02
5.000000000000000000e+02,2.323881399999999928e+02
5.010000000000000000e+02,2.325543199999999899e+02
5.020000000000000000e+02,2.327201499999999896e+02
5.030000000000000000e+02,2.328856499999999983e+02
5.040000000000000000e+02,2.330506599999999935e+02
5.050000000000000000e+02,2.332154400000000010e+02
5.060000000000000000e+02,2.333797900000000141e+02
5.070000000000000000e+02,2.335437599999999918e+02
5.080000000000000000e+02,2.337072900000000004e+02
5.090000000000000000e+02,2.338705099999999959e+02
5.100000000000000000e+02,2.340333300000000065e+02
5.110000000000000000e+02,2.341957400000000007e+02
5.120000000000000000e+02,2.343578200000000038e+02
5.130000000000000000e+02,2.345194899999999905e+02
5.140000000000000000e+02,2.346807900000000018e+02
5.150000000000000000e+02,2.348417499999999905e+02
5.160000000000000000e+02,2.350022099999999909e+02
5.170000000000000000e+02,2.351624500000000069e+02
5.180000000000000000e+02,2.353223099999999874e+02
5.190000000000000000e+02,2.354817500000000052e+02
5.200000000000000000e+02,2.356407900000000097e+02
5.210000000000000000e+02,2.357993800000000135e+02
5.220000000000000000e+02,2.359577299999999980e+02
5.230000000000000000e+02,2.361156000000000006e+02
5.240000000000000000e+02,2.362731599999999901e+02
5.250000000000000000e+02,2.364303600000000074e+02
5.260000000000000000e+02,2.365870400000000018e+02
5.270000000000000000e+02,2.367435299999999927e+02
5.280000000000000000e+02,2.368995400000000018e+02
5.290000000000000000e+02,2.370551600000000008e+02
5.300000000000000000e+02,2.372104899999999930e+02
5.310000000000000000e+02,2.373653099999999938e+02
5.320000000000000000e+02,2.375199000000000069e+02
5.330000000000000000e+02,2.376740599999999972e+02
5.340000000000000000e+02,2.378278400000000090e+02
5.350000000000000000e+02,2.379812200000000075e+02
5.360000000000000000e+02,2.381341600000000085e+02
5.370000000000000000e+02,2.382869000000000028e+02
5.380000000000000000e+02,2.384391899999999964e+02
5.390000000000000000e+02,2.385910199999999861e+02
5.400000000000000000e+02,2.387426000000000101e+02
5.410000000000000000e+02,2.388937099999999987e+02
5.420000000000000000e+02,2.390445100000000025e+02
5.430000000000000000e+02,2.391949199999999962e+02
5.440000000000000000e+02,2.393448300000000017e+02
5.450000000000000000e+02,2.394945700000000102e+02
5.460000000000000000e+02,2.396438300000000083e+02
5.470000000000000000e+02,2.397927400000000091e+02
5.480000000000000000e+02,2.399413099999999872e+02
5.490000000000000000e+02,2.400893700000000024e+02
5.500000000000000000e+02,2.402372000000000014e+02
5.510000000000000000e+02,2.403846599999999967e+02
5.520000000000000000e+02,2.405316200000000038e+02
5.530000000000000000e+02,2.406783399999999915e+02
5.540000000000000000e+02,2.408246499999999912e+02
5.550000000000000000e+02,2.409706099999999935e+02
5.560000000000000000e+02,2.411161700000000110e+02
5.570000000000000000e+02,2.412613699999999994e+02
5.580000000000000000e+02,2.414061700000000030e+02
5.590000000000000000e+02,2.415506000000000029e+02
5.600000000000000000e+02,2.416946399999999926e+02
5.610000000000000000e+02,2.418384200000000135e+02
5.620000000000000000e+02,2.419817799999999863e+02
5.630000000000000000e+02,2.421246899999999869e+02
5.640000000000000000e+02,2.422673599999999965e+02
5.650000000000000000e+02,2.424096099999999865e+02
5.660000000000000000e+02,2.425515399999999886e+02
5.670000000000000000e+02,2.426930700000000058e+02
5.680000000000000000e+02,2.428341399999999908e+02
5.690000000000000000e+02,2.429750400000000070e+02
5.700000000000000000e+02,2.431154899999999941e+02
5.710000000000000000e+02,2.432554499999999962e+02
5.720000000000000000e+02,2.433952199999999948e+02
5.730000000000000000e+02,2.435346099999999865e+02
5.740000000000000000e+02,2.436734800000000121e+02
5.750000000000000000e+02,2.438121899999999869e+02
5.760000000000000000e+02,2.439505000000000052e+02
5.770000000000000000e+02,2.440883000000000038e+02
5.780000000000000000e+02,2.442259500000000116e+02
5.790000000000000000e+02,2.443631900000000030e+02
5.800000000000000000e+02,2.444999200000000030e+02
5.810000000000000000e+02,2.446365099999999870e+02
5.820000000000000000e+02,2.447726399999999956e+02
5.830000000000000000e+02,2.449082899999999938e+02
5.840000000000000000e+02,2.450438399999999888e+02
5.850000000000000000e+02,2.451787899999999922e+02
5.860000000000000000e+02,2.453135399999999890e+02
5.870000000000000000e+02,2.454479499999999916e+02
5.880000000000000000e+02,2.455818600000000060e+02
5.890000000000000000e+02,2.457155600000000106e+02
5.900000000000000000e+02,2.458489399999999989e+02
5.910000000000000000e+02,2.459817999999999927e+02
5.920000000000000000e+02,2.461144600000000082e+02
5.930000000000000000e+02,2.462467499999999916e+02
5.940000000000000000e+02,2.463785699999999963e+02
5.950000000000000000e+02,2.465102200000000039e+02
5.960000000000000000e+02,2.466414800000000014e+02
5.970000000000000000e+02,2.467722599999999886e+02
5.980000000000000000e+02,2.469028800000000103e+02
5.990000000000000000e+02,2.470331099999999935e+02