# Time [s], Temperature [C]
1.000000000000000000e+00,2.500000000000000000e+01
2.000000000000000000e+00,2.500000000000000000e+01
3.000000000000000000e+00,2.500000000000000000e+01
4.000000000000000000e+00,2.500000000000000000e+01
5.000000000000000000e+00,2.500000599999999906e+01
6.000000000000000000e+00,2.500003099999999989e+01
7.000000000000000000e+00,2.500012800000000013e+01
8.000000000000000000e+00,2.500044099999999858e+01
9.000000000000000000e+00,2.500129899999999950e+01
1.000000000000000000e+01,2.500333600000000089e+01
1.100000000000000000e+01,2.500763299999999845e+01
1.200000000000000000e+01,2.501581600000000094e+01
1.300000000000000000e+01,2.503011300000000006e+01
1.400000000000000000e+01,2.505334900000000076e+01
1.500000000000000000e+01,2.508885799999999833e+01
1.600000000000000000e+01,2.514037099999999825e+01
1.700000000000000000e+01,2.521189499999999839e+01
1.800000000000000000e+01,2.530755600000000172e+01
1.900000000000000000e+01,2.543148599999999959e+01
2.000000000000000000e+01,2.558769200000000055e+01
2.100000000000000000e+01,2.578000099999999861e+01
2.200000000000000000e+01,2.601197799999999916e+01
2.300000000000000000e+01,2.628686700000000087e+01
2.400000000000000000e+01,2.660755899999999841e+01
2.500000000000000000e+01,2.697662000000000049e+01
2.600000000000000000e+01,2.739623500000000078e+01
2.700000000000000000e+01,2.786825599999999881e+01
2.800000000000000000e+01,2.839412499999999895e+01
2.900000000000000000e+01,2.897500799999999899e+01
3.000000000000000000e+01,2.961178800000000066e+01
3.100000000000000000e+01,3.030499800000000121e+01
3.200000000000000000e+01,3.105491299999999910e+01
3.300000000000000000e+01,3.186163499999999971e+01
3.400000000000000000e+01,3.272503300000000337e+01
3.500000000000000000e+01,3.364474100000000334e+01
3.600000000000000000e+01,3.462028899999999965e+01
3.700000000000000000e+01,3.565101599999999848e+01
3.800000000000000000e+01,3.673614100000000349e+01
3.900000000000000000e+01,3.787478600000000029e+01
4.000000000000000000e+01,3.906600199999999745e+01
4.100000000000000000e+01,4.030868900000000110e+01
4.200000000000000000e+01,4.160174599999999856e+01
4.300000000000000000e+01,4.294390099999999677e+01
4.400000000000000000e+01,4.433397300000000030e+01
4.500000000000000000e+01,4.577070599999999700e+01
4.600000000000000000e+01,4.725271599999999950e+01
4.700000000000000000e+01,4.877866399999999913e+01
4.800000000000000000e+01,5.034713399999999695e+01
4.900000000000000000e+01,5.195680600000000027e+01
5.000000000000000000e+01,5.360628100000000273e+01
5.100000000000000000e+01,5.529404799999999653e+01
5.200000000000000000e+01,5.701878399999999658e+01
5.300000000000000000e+01,5.877901800000000065e+01
5.400000000000000000e+01,6.057338299999999975e+01
5.500000000000000000e+01,6.240048999999999779e+01
5.600000000000000000e+01,6.425881200000000604e+01
5.700000000000000000e+01,6.614700299999999800e+01
5.800000000000000000e+01,6.806370499999999879e+01
5.900000000000000000e+01,7.000755300000000148e+01
6.000000000000000000e+01,7.197708900000000654e+01
6.100000000000000000e+01,7.397113000000000227e+01
6.200000000000000000e+01,7.598827400000000409e+01
6.300000000000000000e+01,7.802730599999999583e+01
6.400000000000000000e+01,8.008685300000000495e+01
6.500000000000000000e+01,8.216567200000000071e+01
6.600000000000000000e+01,8.426258900000000551e+01
6.700000000000000000e+01,8.637645000000000550e+01
6.800000000000000000e+01,8.850614899999999352e+01
6.900000000000000000e+01,9.065048199999999667e+01
7.000000000000000000e+01,9.280838799999999367e+01
7.100000000000000000e+01,9.497892000000000223e+01
7.200000000000000000e+01,9.716097299999999848e+01
7.300000000000000000e+01,9.935367599999999300e+01
7.400000000000000000e+01,1.015560100000000006e+02
7.500000000000000000e+01,1.037672000000000025e+02
7.600000000000000000e+01,1.059863299999999953e+02
7.700000000000000000e+01,1.082127499999999998e+02
7.800000000000000000e+01,1.104455300000000051e+02
7.900000000000000000e+01,1.126841399999999993e+02
8.000000000000000000e+01,1.149278999999999940e+02
8.100000000000000000e+01,1.171760000000000019e+02
8.200000000000000000e+01,1.194279800000000051e+02
8.300000000000000000e+01,1.216832600000000042e+02
8.400000000000000000e+01,1.239411499999999933e+02
8.500000000000000000e+01,1.262012699999999938e+02
8.600000000000000000e+01,1.284630999999999972e+02
8.700000000000000000e+01,1.307260599999999897e+02
8.800000000000000000e+01,1.329898200000000088e+02
8.900000000000000000e+01,1.352538299999999936e+02
9.000000000000000000e+01,1.375177799999999877e+02
9.100000000000000000e+01,1.397812299999999937e+02
9.200000000000000000e+01,1.420437000000000012e+02
9.300000000000000000e+01,1.443048900000000003e+02
9.400000000000000000e+01,1.465644499999999937e+02
9.500000000000000000e+01,1.488218799999999931e+02
9.600000000000000000e+01,1.510769999999999982e+02
9.700000000000000000e+01,1.533294199999999989e+02
9.800000000000000000e+01,1.555787500000000136e+02
9.900000000000000000e+01,1.578248299999999915e+02
1.000000000000000000e+02,1.600672800000000109e+02
1.010000000000000000e+02,1.623059800000000052e+02
1.020000000000000000e+02,1.645406199999999899e+02
1.030000000000000000e+02,1.667708599999999990e+02
1.040000000000000000e+02,1.689966599999999914e+02
1.050000000000000000e+02,1.712175900000000013e+02
1.060000000000000000e+02,1.734336099999999874e+02
1.070000000000000000e+02,1.756443500000000029e+02
1.080000000000000000e+02,1.778497600000000034e+02
1.090000000000000000e+02,1.800495799999999917e+02
1.100000000000000000e+02,1.822436500000000024e+02
1.110000000000000000e+02,1.844318100000000129e+02
1.120000000000000000e+02,1.866139200000000073e+02
1.130000000000000000e+02,1.887897000000000105e+02
1.140000000000000000e+02,1.909591399999999908e+02
1.150000000000000000e+02,1.931219199999999887e+02
1.160000000000000000e+02,1.952779700000000105e+02
1.170000000000000000e+02,1.974272200000000055e+02
1.180000000000000000e+02,1.995693400000000111e+02
1.190000000000000000e+02,2.017043899999999894e+02
1.200000000000000000e+02,2.038321699999999908e+02
1.210000000000000000e+02,2.059524700000000053e+02
1.220000000000000000e+02,2.080652599999999950e+02
1.230000000000000000e+02,2.101705300000000136e+02
1.240000000000000000e+02,2.122679599999999880e+02
1.250000000000000000e+02,2.143575600000000065e+02
1.260000000000000000e+02,2.164392400000000123e+02
1.270000000000000000e+02,2.185129699999999957e+02
1.280000000000000000e+02,2.205785700000000134e+02
1.290000000000000000e+02,2.226359600000000114e+02
1.300000000000000000e+02,2.246850300000000118e+02
1.310000000000000000e+02,2.267256899999999860e+02
1.320000000000000000e+02,2.287579000000000065e+02
1.330000000000000000e+02,2.307815600000000131e+02
1.340000000000000000e+02,2.327965700000000027e+02
1.350000000000000000e+02,2.348028700000000129e+02
1.360000000000000000e+02,2.368003699999999867e+02
1.370000000000000000e+02,2.387889600000000030e+02
1.380000000000000000e+02,2.407685500000000047e+02
1.390000000000000000e+02,2.427391399999999919e+02
1.400000000000000000e+02,2.447005900000000054e+02
1.410000000000000000e+02,2.466528500000000008e+02
1.420000000000000000e+02,2.485958599999999876e+02
1.430000000000000000e+02,2.505295900000000131e+02
1.440000000000000000e+02,2.524538900000000012e+02
1.450000000000000000e+02,2.543687899999999900e+02
1.460000000000000000e+02,2.562742000000000075e+02
1.470000000000000000e+02,2.581700999999999908e+02
1.480000000000000000e+02,2.600563700000000154e+02
1.490000000000000000e+02,2.619330400000000054e+02
1.500000000000000000e+02,2.638000799999999799e+02
1.510000000000000000e+02,2.656573200000000270e+02
1.520000000000000000e+02,2.675048199999999952e+02
1.530000000000000000e+02,2.693425300000000107e+02
1.540000000000000000e+02,2.711703499999999849e+02
1.550000000000000000e+02,2.729882799999999747e+02
1.560000000000000000e+02,2.747962299999999800e+02
1.570000000000000000e+02,2.765942400000000134e+02
1.580000000000000000e+02,2.783822000000000116e+02
1.590000000000000000e+02,2.801600999999999999e+02
1.600000000000000000e+02,2.819278299999999717e+02
1.610000000000000000e+02,2.836854599999999778e+02
1.620000000000000000e+02,2.854327099999999859e+02
1.630000000000000000e+02,2.871696800000000280e+02
1.640000000000000000e+02,2.888962999999999965e+02
1.650000000000000000e+02,2.906123999999999796e+02
1.660000000000000000e+02,2.923179000000000087e+02
1.670000000000000000e+02,2.940127899999999954e+02
1.680000000000000000e+02,2.956969599999999900e+02
1.690000000000000000e+02,2.973702400000000239e+02
1.700000000000000000e+02,2.990325000000000273e+02
1.710000000000000000e+02,3.006836900000000128e+02
1.720000000000000000e+02,3.023236099999999738e+02
1.730000000000000000e+02,3.039521500000000174e+02
1.740000000000000000e+02,3.055692399999999793e+02
1.750000000000000000e+02,3.071746499999999855e+02
1.760000000000000000e+02,3.087682800000000043e+02
1.770000000000000000e+02,3.103499100000000226e+02
1.780000000000000000e+02,3.119193700000000149e+02
1.790000000000000000e+02,3.134765300000000252e+02
1.800000000000000000e+02,3.150211199999999963e+02
1.810000000000000000e+02,3.165529799999999909e+02
1.820000000000000000e+02,3.180720499999999902e+02
1.830000000000000000e+02,3.195779699999999934e+02
1.840000000000000000e+02,3.210706200000000194e+02
1.850000000000000000e+02,3.225497399999999857e+02
1.860000000000000000e+02,3.240151700000000119e+02
1.870000000000000000e+02,3.254667099999999778e+02
1.880000000000000000e+02,3.269041100000000029e+02
1.890000000000000000e+02,3.283270899999999983e+02
1.900000000000000000e+02,3.297355000000000018e+02
1.910000000000000000e+02,3.311290900000000192e+02
1.920000000000000000e+02,3.325076599999999871e+02
1.930000000000000000e+02,3.338708799999999997e+02
1.940000000000000000e+02,3.352185699999999997e+02
1.950000000000000000e+02,3.365504799999999932e+02
1.960000000000000000e+02,3.378664200000000051e+02
1.970000000000000000e+02,3.391661399999999844e+02
1.980000000000000000e+02,3.404493699999999876e+02
1.990000000000000000e+02,3.417159100000000080e+02
2.000000000000000000e+02,3.429656100000000265e+02
2.010000000000000000e+02,3.441981499999999983e+02
2.020000000000000000e+02,3.454134199999999737e+02
2.030000000000000000e+02,3.466111799999999903e+02
2.040000000000000000e+02,3.477912299999999846e+02
2.050000000000000000e+02,3.489534600000000069e+02
2.060000000000000000e+02,3.500977199999999812e+02
2.070000000000000000e+02,3.512238800000000083e+02
2.080000000000000000e+02,3.523318499999999744e+02
2.090000000000000000e+02,3.534214200000000119e+02
2.100000000000000000e+02,3.544926500000000260e+02
2.110000000000000000e+02,3.555454100000000039e+02
2.120000000000000000e+02,3.565796799999999962e+02
2.130000000000000000e+02,3.575955200000000218e+02
2.140000000000000000e+02,3.585928999999999860e+02
2.150000000000000000e+02,3.595719300000000089e+02
2.160000000000000000e+02,3.605326200000000085e+02
2.170000000000000000e+02,3.614751600000000167e+02
2.180000000000000000e+02,3.623995699999999829e+02
2.190000000000000000e+02,3.633060600000000022e+02
2.200000000000000000e+02,3.641948899999999867e+02
2.210000000000000000e+02,3.650662199999999871e+02
2.220000000000000000e+02,3.659203800000000228e+02
2.230000000000000000e+02,3.667575400000000059e+02
2.240000000000000000e+02,3.675780599999999936e+02
2.250000000000000000e+02,3.683822900000000118e+02
2.260000000000000000e+02,3.691706199999999853e+02
2.270000000000000000e+02,3.699434200000000033e+02
2.280000000000000000e+02,3.707011400000000094e+02
2.290000000000000000e+02,3.714441800000000171e+02
2.300000000000000000e+02,3.721730299999999829e+02
2.310000000000000000e+02,3.728881200000000149e+02
2.320000000000000000e+02,3.735899999999999750e+02
2.330000000000000000e+02,3.742791100000000029e+02
2.340000000000000000e+02,3.749561199999999985e+02
2.350000000000000000e+02,3.756214899999999943e+02
2.360000000000000000e+02,3.762757599999999911e+02
2.370000000000000000e+02,3.769195300000000088e+02
2.380000000000000000e+02,3.775533800000000042e+02
2.390000000000000000e+02,3.781778299999999717e+02
2.400000000000000000e+02,3.787935200000000009e+02
2.410000000000000000e+02,3.794009699999999725e+02
2.420000000000000000e+02,3.800008900000000267e+02
2.430000000000000000e+02,3.805937200000000189e+02
2.440000000000000000e+02,3.811801500000000260e+02
2.450000000000000000e+02,3.817607699999999795e+02
2.460000000000000000e+02,3.823361199999999940e+02
2.470000000000000000e+02,3.829067699999999945e+02
2.480000000000000000e+02,3.834732999999999947e+02
2.490000000000000000e+02,3.840362499999999955e+02
2.500000000000000000e+02,3.845961899999999787e+02
2.510000000000000000e+02,3.851536600000000021e+02
2.520000000000000000e+02,3.857091699999999719e+02
2.530000000000000000e+02,3.862633700000000090e+02
2.540000000000000000e+02,3.868166800000000194e+02
2.550000000000000000e+02,3.873696600000000103e+02
2.560000000000000000e+02,3.879227300000000014e+02
2.570000000000000000e+02,3.884765899999999874e+02
2.580000000000000000e+02,3.890314599999999814e+02
2.590000000000000000e+02,3.895879800000000159e+02
2.600000000000000000e+02,3.901466399999999908e+02
2.610000000000000000e+02,3.907077899999999886e+02
2.620000000000000000e+02,3.912721300000000042e+02
2.630000000000000000e+02,3.918398399999999810e+02
2.640000000000000000e+02,3.924115899999999897e+02
2.650000000000000000e+02,3.929876100000000179e+02
2.660000000000000000e+02,3.935684499999999844e+02
2.670000000000000000e+02,3.941546900000000164e+02
2.680000000000000000e+02,3.947465500000000134e+02
2.690000000000000000e+02,3.953446700000000078e+02
2.700000000000000000e+02,3.959493400000000065e+02
2.710000000000000000e+02,3.965611000000000104e+02
2.720000000000000000e+02,3.971803300000000263e+02
2.730000000000000000e+02,3.978075000000000045e+02
2.740000000000000000e+02,3.984431799999999839e+02
2.750000000000000000e+02,3.990876799999999776e+02
2.760000000000000000e+02,3.997414200000000051e+02
2.770000000000000000e+02,4.004050599999999918e+02
2.780000000000000000e+02,4.010791899999999828e+02
2.790000000000000000e+02,4.017639199999999846e+02
2.800000000000000000e+02,4.024599299999999857e+02
2.810000000000000000e+02,4.031679399999999873e+02
2.820000000000000000e+02,4.038883999999999901e+02
2.830000000000000000e+02,4.046218299999999886e+02
2.840000000000000000e+02,4.053685600000000022e+02
2.850000000000000000e+02,4.061294899999999757e+02
2.860000000000000000e+02,4.069053999999999860e+02
2.870000000000000000e+02,4.076967799999999897e+02
2.880000000000000000e+02,4.085042399999999816e+02
2.890000000000000000e+02,4.093285500000000070e+02
2.900000000000000000e+02,4.101705000000000041e+02
2.910000000000000000e+02,4.110309100000000058e+02
2.920000000000000000e+02,4.119104300000000194e+02
2.930000000000000000e+02,4.128098100000000272e+02
2.940000000000000000e+02,4.137300099999999929e+02
2.950000000000000000e+02,4.146722100000000069e+02
2.960000000000000000e+02,4.156370200000000068e+02
2.970000000000000000e+02,4.166254299999999944e+02
2.980000000000000000e+02,4.176385799999999904e+02
2.990000000000000000e+02,4.186775499999999965e+02
3.000000000000000000e+02,4.197435300000000211e+02
3.010000000000000000e+02,4.208374900000000025e+02
3.020000000000000000e+02,4.219608200000000124e+02
3.030000000000000000e+02,4.231144100000000208e+02
3.040000000000000000e+02,4.242998000000000047e+02
3.050000000000000000e+02,4.255179400000000101e+02
3.060000000000000000e+02,4.267701400000000262e+02
3.070000000000000000e+02,4.280577400000000239e+02
3.080000000000000000e+02,4.293817099999999982e+02
3.090000000000000000e+02,4.307431000000000267e+02
3.100000000000000000e+02,4.321438600000000179e+02
3.110000000000000000e+02,4.335836199999999963e+02
3.120000000000000000e+02,4.350639300000000276e+02
3.130000000000000000e+02,4.365851400000000240e+02
3.140000000000000000e+02,4.381467900000000100e+02
3.150000000000000000e+02,4.397501500000000192e+02
3.160000000000000000e+02,4.413940699999999993e+02
3.170000000000000000e+02,4.430774200000000178e+02
3.180000000000000000e+02,4.447990100000000098e+02
3.190000000000000000e+02,4.465565199999999777e+02
3.200000000000000000e+02,4.483467099999999732e+02
3.210000000000000000e+02,4.501660800000000222e+02
3.220000000000000000e+02,4.520102200000000039e+02
3.230000000000000000e+02,4.538740199999999732e+02
3.240000000000000000e+02,4.557518900000000031e+02
3.250000000000000000e+02,4.576368100000000254e+02
3.260000000000000000e+02,4.595230700000000184e+02
3.270000000000000000e+02,4.614036300000000210e+02
3.280000000000000000e+02,4.632717000000000098e+02
3.290000000000000000e+02,4.651224100000000021e+02
3.300000000000000000e+02,4.669508700000000090e+02
3.310000000000000000e+02,4.687533900000000244e+02
3.320000000000000000e+02,4.705278000000000134e+02
3.330000000000000000e+02,4.722728000000000179e+02
3.340000000000000000e+02,4.739888000000000261e+02
3.350000000000000000e+02,4.756759000000000128e+02
3.360000000000000000e+02,4.773356899999999996e+02
3.370000000000000000e+02,4.789697300000000268e+02
3.380000000000000000e+02,4.805796500000000151e+02
3.390000000000000000e+02,4.821669600000000173e+02
3.400000000000000000e+02,4.837331500000000233e+02
3.410000000000000000e+02,4.852793899999999780e+02
3.420000000000000000e+02,4.868067300000000159e+02
3.430000000000000000e+02,4.883163799999999810e+02
3.440000000000000000e+02,4.898088399999999751e+02
3.450000000000000000e+02,4.912849699999999871e+02
3.460000000000000000e+02,4.927454200000000242e+02
3.470000000000000000e+02,4.941907299999999736e+02
3.480000000000000000e+02,4.956215500000000134e+02
3.490000000000000000e+02,4.970385099999999738e+02
3.500000000000000000e+02,4.984415599999999813e+02
3.510000000000000000e+02,4.998314199999999801e+02
3.520000000000000000e+02,5.012083400000000211e+02
3.530000000000000000e+02,5.025727200000000039e+02
3.540000000000000000e+02,5.039249300000000176e+02
3.550000000000000000e+02,5.052652299999999741e+02
3.560000000000000000e+02,5.065938699999999812e+02
3.570000000000000000e+02,5.079113800000000083e+02
3.580000000000000000e+02,5.092177399999999921e+02
3.590000000000000000e+02,5.105132399999999961e+02
3.600000000000000000e+02,5.117981599999999958e+02
3.610000000000000000e+02,5.130727500000000418e+02
3.620000000000000000e+02,5.143371600000000399e+02
3.630000000000000000e+02,5.155914299999999457e+02
3.640000000000000000e+02,5.168358799999999746e+02
3.650000000000000000e+02,5.180707400000000007e+02
3.660000000000000000e+02,5.192961400000000367e+02
3.670000000000000000e+02,5.205121500000000196e+02
3.680000000000000000e+02,5.217189899999999625e+02
3.690000000000000000e+02,5.229168100000000550e+02
3.700000000000000000e+02,5.241058299999999690e+02
3.710000000000000000e+02,5.252860699999999952e+02
3.720000000000000000e+02,5.264577000000000453e+02
3.730000000000000000e+02,5.276208500000000186e+02
3.740000000000000000e+02,5.287755100000000539e+02
3.750000000000000000e+02,5.299218100000000504e+02
3.760000000000000000e+02,5.310599399999999832e+02
3.770000000000000000e+02,5.321899399999999787e+02
3.780000000000000000e+02,5.333118299999999863e+02
3.790000000000000000e+02,5.344260900000000447e+02
3.800000000000000000e+02,5.355324100000000271e+02
3.810000000000000000e+02,5.366310399999999845e+02
3.820000000000000000e+02,5.377219199999999546e+02
3.830000000000000000e+02,5.388052999999999884e+02
3.840000000000000000e+02,5.398813499999999976e+02
3.850000000000000000e+02,5.409498300000000199e+02
3.860000000000000000e+02,5.420111100000000306e+02
3.870000000000000000e+02,5.430651900000000296e+02
3.880000000000000000e+02,5.441119400000000041e+02
3.890000000000000000e+02,5.451516100000000051e+02
3.900000000000000000e+02,5.461843300000000454e+02
3.910000000000000000e+02,5.472098999999999478e+02
3.920000000000000000e+02,5.482287000000000035e+02
3.930000000000000000e+02,5.492405400000000100e+02
3.940000000000000000e+02,5.502456100000000561e+02
3.950000000000000000e+02,5.512439600000000155e+02
3.960000000000000000e+02,5.522356600000000526e+02
3.970000000000000000e+02,5.532206999999999653e+02
3.980000000000000000e+02,5.541991600000000062e+02
3.990000000000000000e+02,5.551710799999999608e+02
4.000000000000000000e+02,5.561365399999999681e+02
4.010000000000000000e+02,5.570956999999999653e+02
4.020000000000000000e+02,5.580484000000000151e+02
4.030000000000000000e+02,5.589948100000000295e+02
4.040000000000000000e+02,5.599348800000000210e+02
4.050000000000000000e+02,5.608685900000000402e+02
4.060000000000000000e+02,5.617963899999999740e+02
4.070000000000000000e+02,5.627179599999999482e+02
4.080000000000000000e+02,5.636333600000000388e+02
4.090000000000000000e+02,5.645427899999999681e+02
4.100000000000000000e+02,5.654461099999999760e+02
4.110000000000000000e+02,5.663435699999999997e+02
4.120000000000000000e+02,5.672350500000000011e+02
4.130000000000000000e+02,5.681206100000000561e+02
4.140000000000000000e+02,5.690004300000000512e+02
4.150000000000000000e+02,5.698745099999999866e+02
4.160000000000000000e+02,5.707427400000000262e+02
4.170000000000000000e+02,5.716051599999999553e+02
4.180000000000000000e+02,5.724619099999999889e+02
4.190000000000000000e+02,5.733130499999999756e+02
4.200000000000000000e+02,5.741586300000000165e+02
4.210000000000000000e+02,5.749985400000000482e+02
4.220000000000000000e+02,5.758329499999999825e+02
4.230000000000000000e+02,5.766618700000000217e+02
4.240000000000000000e+02,5.774853500000000395e+02
4.250000000000000000e+02,5.783034099999999853e+02
4.260000000000000000e+02,5.791160300000000234e+02
4.270000000000000000e+02,5.799232799999999770e+02
4.280000000000000000e+02,5.807252200000000357e+02
4.290000000000000000e+02,5.815219100000000481e+02
4.300000000000000000e+02,5.823132299999999759e+02
4.310000000000000000e+02,5.830992999999999711e+02
4.320000000000000000e+02,5.838803100000000086e+02
4.330000000000000000e+02,5.846561299999999619e+02
4.340000000000000000e+02,5.854268799999999828e+02
4.350000000000000000e+02,5.861924400000000333e+02
4.360000000000000000e+02,5.869529400000000123e+02
4.370000000000000000e+02,5.877084399999999960e+02
4.380000000000000000e+02,5.884587999999999965e+02
4.390000000000000000e+02,5.892043499999999767e+02
4.400000000000000000e+02,5.899448899999999867e+02
4.410000000000000000e+02,5.906805399999999509e+02
4.420000000000000000e+02,5.914113200000000461e+02
4.430000000000000000e+02,5.921372699999999440e+02
4.440000000000000000e+02,5.928582800000000361e+02
4.450000000000000000e+02,5.935745799999999690e+02
4.460000000000000000e+02,5.942861299999999574e+02
4.470000000000000000e+02,5.949929799999999886e+02
4.480000000000000000e+02,5.956950699999999870e+02
4.490000000000000000e+02,5.963924600000000282e+02
4.500000000000000000e+02,5.970852700000000368e+02
4.510000000000000000e+02,5.977735000000000127e+02
4.520000000000000000e+02,5.984570300000000316e+02
4.530000000000000000e+02,5.991361100000000306e+02
4.540000000000000000e+02,5.998105500000000347e+02
4.550000000000000000e+02,6.004806499999999687e+02
4.560000000000000000e+02,6.011461199999999963e+02
4.570000000000000000e+02,6.018071899999999914e+02
4.580000000000000000e+02,6.024639300000000048e+02
4.590000000000000000e+02,6.031161499999999478e+02
4.600000000000000000e+02,6.037640999999999849e+02
4.610000000000000000e+02,6.044076499999999896e+02
4.620000000000000000e+02,6.050469399999999496e+02
4.630000000000000000e+02,6.056820099999999911e+02
4.640000000000000000e+02,6.063126800000000003e+02
4.650000000000000000e+02,6.069392100000000028e+02
4.660000000000000000e+02,6.075614600000000110e+02
4.670000000000000000e+02,6.081796299999999746e+02
4.680000000000000000e+02,6.087935199999999440e+02
4.690000000000000000e+02,6.094033799999999701e+02
4.700000000000000000e+02,6.100091599999999517e+02
4.710000000000000000e+02,6.106107799999999770e+02
4.720000000000000000e+02,6.112084399999999960e+02
4.730000000000000000e+02,6.118020000000000209e+02
4.740000000000000000e+02,6.123916000000000395e+02
4.750000000000000000e+02,6.129772299999999632e+02
4.760000000000000000e+02,6.135589599999999564e+02
4.770000000000000000e+02,6.141367199999999684e+02
4.780000000000000000e+02,6.147105099999999993e+02
4.790000000000000000e+02,6.152805200000000241e+02
4.800000000000000000e+02,6.158466799999999921e+02
4.810000000000000000e+02,6.164089999999999918e+02
4.820000000000000000e+02,6.169675300000000107e+02
4.830000000000000000e+02,6.175222800000000234e+02
4.840000000000000000e+02,6.180732400000000553e+02
4.850000000000000000e+02,6.186205400000000054e+02
4.860000000000000000e+02,6.191640599999999495e+02
4.870000000000000000e+02,6.197039200000000392e+02
4.880000000000000000e+02,6.202401099999999587e+02
4.890000000000000000e+02,6.207726400000000240e+02
4.900000000000000000e+02,6.213015699999999697e+02
4.910000000000000000e+02,6.218269699999999602e+02
4.920000000000000000e+02,6.223487499999999955e+02
4.930000000000000000e+02,6.228669399999999996e+02
4.940000000000000000e+02,6.233816500000000360e+02
4.950000000000000000e+02,6.238928200000000288e+02
4.960000000000000000e+02,6.244005700000000161e+02
4.970000000000000000e+02,6.249048500000000104e+02
4.980000000000000000e+02,6.254056399999999485e+02
4.990000000000000000e+02,6.259030800000000454e+02
5.000000000000000000e+02,6.263970900000000483e+02
5.010000000000000000e+02,6.268877599999999575e+02
5.020000000000000000e+02,6.273750599999999622e+02
5.030000000000000000e+02,6.278590699999999742e+02
5.040000000000000000e+02,6.283397800000000188e+02
5.050000000000000000e+02,6.288171999999999571e+02
5.060000000000000000e+02,6.292913200000000415e+02
5.070000000000000000e+02,6.297621500000000196e+02
5.080000000000000000e+02,6.302297399999999925e+02
5.090000000000000000e+02,6.306942699999999604e+02
5.100000000000000000e+02,6.311555799999999863e+02
5.110000000000000000e+02,6.316137099999999691e+02
5.120000000000000000e+02,6.320687299999999595e+02
5.130000000000000000e+02,6.325205700000000206e+02
5.140000000000000000e+02,6.329693600000000515e+02
5.150000000000000000e+02,6.334149800000000141e+02
5.160000000000000000e+02,6.338576000000000477e+02
5.170000000000000000e+02,6.342971800000000258e+02
5.180000000000000000e+02,6.347338300000000118e+02
5.190000000000000000e+02,6.351673600000000306e+02
5.200000000000000000e+02,6.355980200000000195e+02
5.210000000000000000e+02,6.360257000000000289e+02
5.220000000000000000e+02,6.364503799999999956e+02
5.230000000000000000e+02,6.368721299999999701e+02
5.240000000000000000e+02,6.372909499999999525e+02
5.250000000000000000e+02,6.377069699999999557e+02
5.260000000000000000e+02,6.381200599999999667e+02
5.270000000000000000e+02,6.385303300000000490e+02
5.280000000000000000e+02,6.389378100000000131e+02
5.290000000000000000e+02,6.393424700000000485e+02
5.300000000000000000e+02,6.397442600000000539e+02
5.310000000000000000e+02,6.401433700000000044e+02
5.320000000000000000e+02,6.405396700000000010e+02
5.330000000000000000e+02,6.409332299999999805e+02
5.340000000000000000e+02,6.413241000000000440e+02
5.350000000000000000e+02,6.417122799999999643e+02
5.360000000000000000e+02,6.420977799999999434e+02
5.370000000000000000e+02,6.424805900000000065e+02
5.380000000000000000e+02,6.428607799999999770e+02
5.390000000000000000e+02,6.432382800000000316e+02
5.400000000000000000e+02,6.436131599999999935e+02
5.410000000000000000e+02,6.439854699999999639e+02
5.420000000000000000e+02,6.443550999999999931e+02
5.430000000000000000e+02,6.447222900000000436e+02
5.440000000000000000e+02,6.450868500000000267e+02
5.450000000000000000e+02,6.454489700000000312e+02
5.460000000000000000e+02,6.458085899999999810e+02
5.470000000000000000e+02,6.461657099999999900e+02
5.480000000000000000e+02,6.465202600000000075e+02
5.490000000000000000e+02,6.468724399999999832e+02
5.500000000000000000e+02,6.472221100000000433e+02
5.510000000000000000e+02,6.475693999999999733e+02
5.520000000000000000e+02,6.479141799999999876e+02
5.530000000000000000e+02,6.482566500000000360e+02
5.540000000000000000e+02,6.485967399999999543e+02
5.550000000000000000e+02,6.489344499999999698e+02
5.560000000000000000e+02,6.492698400000000447e+02
5.570000000000000000e+02,6.496028400000000147e+02
5.580000000000000000e+02,6.499335300000000188e+02
5.590000000000000000e+02,6.502618999999999687e+02
5.600000000000000000e+02,6.505880100000000539e+02
5.610000000000000000e+02,6.509118700000000217e+02
5.620000000000000000e+02,6.512334600000000364e+02
5.630000000000000000e+02,6.515528000000000475e+02
5.640000000000000000e+02,6.518698699999999917e+02
5.650000000000000000e+02,6.521847500000000082e+02
5.660000000000000000e+02,6.524974399999999832e+02
5.670000000000000000e+02,6.528079800000000432e+02
5.680000000000000000e+02,6.531162699999999859e+02
5.690000000000000000e+02,6.534224199999999882e+02
5.700000000000000000e+02,6.537264999999999873e+02
5.710000000000000000e+02,6.540283799999999701e+02
5.720000000000000000e+02,6.543282500000000255e+02
5.730000000000000000e+02,6.546259199999999510e+02
5.740000000000000000e+02,6.549215100000000120e+02
5.750000000000000000e+02,6.552150900000000320e+02
5.760000000000000000e+02,6.555065899999999601e+02
5.770000000000000000e+02,6.557960199999999986e+02
5.780000000000000000e+02,6.560834999999999582e+02
5.790000000000000000e+02,6.563689000000000533e+02
5.800000000000000000e+02,6.566522800000000188e+02
5.810000000000000000e+02,6.569337199999999939e+02
5.820000000000000000e+02,6.572132000000000289e+02
5.830000000000000000e+02,6.574907200000000103e+02
5.840000000000000000e+02,6.577662400000000389e+02
5.850000000000000000e+02,6.580398599999999760e+02
5.860000000000000000e+02,6.583115800000000490e+02
5.870000000000000000e+02,6.585813000000000557e+02
5.880000000000000000e+02,6.588492400000000089e+02
5.890000000000000000e+02,6.591152299999999968e+02
5.900000000000000000e+02,6.593793899999999439e+02
5.910000000000000000e+02,6.596416600000000017e+02
5.920000000000000000e+02,6.599021000000000186e+02
5.930000000000000000e+02,6.601607099999999946e+02
5.940000000000000000e+02,6.604174799999999550e+02
5.950000000000000000e+02,6.606724900000000389e+02
5.960000000000000000e+02,6.609256599999999935e+02
5.970000000000000000e+02,6.611770599999999831e+02
5.980000000000000000e+02,6.614266999999999825e+02
5.990000000000000000e+02,6.616746200000000044e+02