# Time [s], Mass [Kg]
1.000000000000000000e+00,1.000000000000000000e+00
2.000000000000000000e+00,1.000000000000000000e+00
3.000000000000000000e+00,1.000000000000000000e+00
4.000000000000000000e+00,1.000000000000000000e+00
5.000000000000000000e+00,1.000000000000000000e+00
6.000000000000000000e+00,1.000000000000000000e+00
7.000000000000000000e+00,1.000000000000000000e+00
8.000000000000000000e+00,1.000000000000000000e+00
9.000000000000000000e+00,1.000000000000000000e+00
1.000000000000000000e+01,1.000000000000000000e+00
1.100000000000000000e+01,1.000000000000000000e+00
1.200000000000000000e+01,9.999999400000000316e-01
1.300000000000000000e+01,9.999999400000000316e-01
1.400000000000000000e+01,9.999998799999999521e-01
1.500000000000000000e+01,9.999998199999999837e-01
1.600000000000000000e+01,9.999997600000000153e-01
1.700000000000000000e+01,9.999996399999999674e-01
1.800000000000000000e+01,9.999995200000000306e-01
1.900000000000000000e+01,9.999993400000000143e-01
2.000000000000000000e+01,9.999991099999999689e-01
2.100000000000000000e+01,9.999988100000000157e-01
2.200000000000000000e+01,9.999983900000000148e-01
2.300000000000000000e+01,9.999978499999999659e-01
2.400000000000000000e+01,9.999972000000000305e-01
2.500000000000000000e+01,9.999964199999999970e-01
2.600000000000000000e+01,9.999953499999999496e-01
2.700000000000000000e+01,9.999940999999999969e-01
2.800000000000000000e+01,9.999925499999999801e-01
2.900000000000000000e+01,9.999906400000000417e-01
3.000000000000000000e+01,9.999883800000000100e-01
3.100000000000000000e+01,9.999855800000000405e-01
3.200000000000000000e+01,9.999822400000000222e-01
3.300000000000000000e+01,9.999782999999999866e-01
3.400000000000000000e+01,9.999736000000000180e-01
3.500000000000000000e+01,9.999679900000000288e-01
3.600000000000000000e+01,9.999614999999999476e-01
3.700000000000000000e+01,9.999538100000000540e-01
3.800000000000000000e+01,9.999449299999999541e-01
3.900000000000000000e+01,9.999345499999999776e-01
4.000000000000000000e+01,9.999225699999999550e-01
4.100000000000000000e+01,9.999087500000000128e-01
4.200000000000000000e+01,9.998928900000000342e-01
4.300000000000000000e+01,9.998747700000000238e-01
4.400000000000000000e+01,9.998540299999999492e-01
4.500000000000000000e+01,9.998304799999999659e-01
4.600000000000000000e+01,9.998037800000000308e-01
4.700000000000000000e+01,9.997736200000000295e-01
4.800000000000000000e+01,9.997395900000000113e-01
4.900000000000000000e+01,9.997013200000000044e-01
5.000000000000000000e+01,9.996584699999999657e-01
5.100000000000000000e+01,9.996105400000000474e-01
5.200000000000000000e+01,9.995570799999999867e-01
5.300000000000000000e+01,9.994976500000000152e-01
5.400000000000000000e+01,9.994317900000000421e-01
5.500000000000000000e+01,9.993588899999999997e-01
5.600000000000000000e+01,9.992784900000000192e-01
5.700000000000000000e+01,9.991899699999999829e-01
5.800000000000000000e+01,9.990928799999999610e-01
5.900000000000000000e+01,9.989865399999999784e-01
6.000000000000000000e+01,9.988704299999999758e-01
6.100000000000000000e+01,9.987440100000000154e-01
6.200000000000000000e+01,9.986065600000000320e-01
6.300000000000000000e+01,9.984576699999999638e-01
6.400000000000000000e+01,9.982967400000000158e-01
6.500000000000000000e+01,9.981231699999999485e-01
6.600000000000000000e+01,9.979365500000000333e-01
6.700000000000000000e+01,9.977363299999999491e-01
6.800000000000000000e+01,9.975220000000000198e-01
6.900000000000000000e+01,9.972933499999999674e-01
7.000000000000000000e+01,9.970498700000000047e-01
7.100000000000000000e+01,9.967911200000000305e-01
7.200000000000000000e+01,9.965171800000000024e-01
7.300000000000000000e+01,9.962276199999999804e-01
7.400000000000000000e+01,9.959220899999999821e-01
7.500000000000000000e+01,9.956009999999999582e-01
7.600000000000000000e+01,9.952639899999999873e-01
7.700000000000000000e+01,9.949107799999999946e-01
7.800000000000000000e+01,9.945422400000000218e-01
7.900000000000000000e+01,9.941579699999999464e-01
8.000000000000000000e+01,9.937578999999999718e-01
8.100000000000000000e+01,9.933431099999999736e-01
8.200000000000000000e+01,9.929133700000000173e-01
8.300000000000000000e+01,9.924685399999999547e-01
8.400000000000000000e+01,9.920101799999999637e-01
8.500000000000000000e+01,9.915379300000000118e-01
8.600000000000000000e+01,9.910517899999999880e-01
8.700000000000000000e+01,9.905536200000000235e-01
8.800000000000000000e+01,9.900428700000000193e-01
8.900000000000000000e+01,9.895197199999999915e-01
9.000000000000000000e+01,9.889861300000000188e-01
9.100000000000000000e+01,9.884416499999999495e-01
9.200000000000000000e+01,9.878863700000000136e-01
9.300000000000000000e+01,9.873224499999999626e-01
9.400000000000000000e+01,9.867492900000000011e-01
9.500000000000000000e+01,9.861670099999999550e-01
9.600000000000000000e+01,9.855779399999999857e-01
9.700000000000000000e+01,9.849814199999999964e-01
9.800000000000000000e+01,9.843775599999999848e-01
9.900000000000000000e+01,9.837687000000000515e-01
1.000000000000000000e+02,9.831541200000000202e-01
1.010000000000000000e+02,9.825339899999999682e-01
1.020000000000000000e+02,9.819106499999999960e-01
1.030000000000000000e+02,9.812833699999999881e-01
1.040000000000000000e+02,9.806522699999999926e-01
1.050000000000000000e+02,9.800195699999999510e-01
1.060000000000000000e+02,9.793846000000000496e-01
1.070000000000000000e+02,9.787474900000000533e-01
1.080000000000000000e+02,9.781102499999999589e-01
1.090000000000000000e+02,9.774721299999999946e-01
1.100000000000000000e+02,9.768332199999999466e-01
1.110000000000000000e+02,9.761951599999999507e-01
1.120000000000000000e+02,9.755572700000000319e-01
1.130000000000000000e+02,9.749194399999999705e-01
1.140000000000000000e+02,9.742827400000000360e-01
1.150000000000000000e+02,9.736465199999999598e-01
1.160000000000000000e+02,9.730105399999999793e-01
1.170000000000000000e+02,9.723752700000000138e-01
1.180000000000000000e+02,9.717400699999999558e-01
1.190000000000000000e+02,9.711046199999999740e-01
1.200000000000000000e+02,9.704690599999999945e-01
1.210000000000000000e+02,9.698328400000000293e-01
1.220000000000000000e+02,9.691956600000000144e-01
1.230000000000000000e+02,9.685576000000000185e-01
1.240000000000000000e+02,9.679183999999999566e-01
1.250000000000000000e+02,9.672777700000000367e-01
1.260000000000000000e+02,9.666359399999999713e-01
1.270000000000000000e+02,9.659929299999999719e-01
1.280000000000000000e+02,9.653486000000000011e-01
1.290000000000000000e+02,9.647032599999999514e-01
1.300000000000000000e+02,9.640570299999999815e-01
1.310000000000000000e+02,9.634100199999999781e-01
1.320000000000000000e+02,9.627624799999999761e-01
1.330000000000000000e+02,9.621145100000000339e-01
1.340000000000000000e+02,9.614662499999999667e-01
1.350000000000000000e+02,9.608179300000000422e-01
1.360000000000000000e+02,9.601695500000000383e-01
1.370000000000000000e+02,9.595212899999999712e-01
1.380000000000000000e+02,9.588730300000000151e-01
1.390000000000000000e+02,9.582248300000000274e-01
1.400000000000000000e+02,9.575765699999999603e-01
1.410000000000000000e+02,9.569281899999999563e-01
1.420000000000000000e+02,9.562795200000000495e-01
1.430000000000000000e+02,9.556303000000000436e-01
1.440000000000000000e+02,9.549804899999999597e-01
1.450000000000000000e+02,9.543297899999999556e-01
1.460000000000000000e+02,9.536780700000000444e-01
1.470000000000000000e+02,9.530251600000000378e-01
1.480000000000000000e+02,9.523708800000000307e-01
1.490000000000000000e+02,9.517151099999999753e-01
1.500000000000000000e+02,9.510577900000000140e-01
1.510000000000000000e+02,9.503987999999999881e-01
1.520000000000000000e+02,9.497381400000000085e-01
1.530000000000000000e+02,9.490758799999999829e-01
1.540000000000000000e+02,9.484119399999999533e-01
1.550000000000000000e+02,9.477464599999999573e-01
1.560000000000000000e+02,9.470794200000000052e-01
1.570000000000000000e+02,9.464108900000000046e-01
1.580000000000000000e+02,9.457409399999999744e-01
1.590000000000000000e+02,9.450696699999999728e-01
1.600000000000000000e+02,9.443970299999999707e-01
1.610000000000000000e+02,9.437231400000000159e-01
1.620000000000000000e+02,9.430479400000000290e-01
1.630000000000000000e+02,9.423713700000000415e-01
1.640000000000000000e+02,9.416934300000000535e-01
1.650000000000000000e+02,9.410140500000000463e-01
1.660000000000000000e+02,9.403331900000000410e-01
1.670000000000000000e+02,9.396506500000000317e-01
1.680000000000000000e+02,9.389663900000000396e-01
1.690000000000000000e+02,9.382802199999999981e-01
1.700000000000000000e+02,9.375919700000000523e-01
1.710000000000000000e+02,9.369016300000000408e-01
1.720000000000000000e+02,9.362090199999999474e-01
1.730000000000000000e+02,9.355139700000000280e-01
1.740000000000000000e+02,9.348164199999999813e-01
1.750000000000000000e+02,9.341162400000000421e-01
1.760000000000000000e+02,9.334134499999999779e-01
1.770000000000000000e+02,9.327079099999999734e-01
1.780000000000000000e+02,9.319995599999999492e-01
1.790000000000000000e+02,9.312884799999999741e-01
1.800000000000000000e+02,9.305745399999999501e-01
1.810000000000000000e+02,9.298577300000000490e-01
1.820000000000000000e+02,9.291381199999999563e-01
1.830000000000000000e+02,9.284156599999999759e-01
1.840000000000000000e+02,9.276903300000000074e-01
1.850000000000000000e+02,9.269621399999999900e-01
1.860000000000000000e+02,9.262310900000000347e-01
1.870000000000000000e+02,9.254971100000000117e-01
1.880000000000000000e+02,9.247600999999999738e-01
1.890000000000000000e+02,9.240201099999999501e-01
1.900000000000000000e+02,9.232770799999999722e-01
1.910000000000000000e+02,9.225308300000000239e-01
1.920000000000000000e+02,9.217813000000000256e-01
1.930000000000000000e+02,9.210284899999999775e-01
1.940000000000000000e+02,9.202721699999999450e-01
1.950000000000000000e+02,9.195123899999999573e-01
1.960000000000000000e+02,9.187489199999999689e-01
1.970000000000000000e+02,9.179816800000000221e-01
1.980000000000000000e+02,9.172106399999999660e-01
1.990000000000000000e+02,9.164357199999999537e-01
2.000000000000000000e+02,9.156567500000000193e-01
2.010000000000000000e+02,9.148737200000000014e-01
2.020000000000000000e+02,9.140865799999999819e-01
2.030000000000000000e+02,9.132952699999999924e-01
2.040000000000000000e+02,9.124996699999999850e-01
2.050000000000000000e+02,9.116998299999999888e-01
2.060000000000000000e+02,9.108957100000000251e-01
2.070000000000000000e+02,9.100872899999999932e-01
2.080000000000000000e+02,9.092744600000000066e-01
2.090000000000000000e+02,9.084572199999999542e-01
2.100000000000000000e+02,9.076356300000000266e-01
2.110000000000000000e+02,9.068095099999999853e-01
2.120000000000000000e+02,9.059789799999999893e-01
2.130000000000000000e+02,9.051438600000000223e-01
2.140000000000000000e+02,9.043042100000000527e-01
2.150000000000000000e+02,9.034599100000000327e-01
2.160000000000000000e+02,9.026109599999999622e-01
2.170000000000000000e+02,9.017572400000000155e-01
2.180000000000000000e+02,9.008988100000000498e-01
2.190000000000000000e+02,9.000355599999999567e-01
2.200000000000000000e+02,8.991674200000000505e-01
2.210000000000000000e+02,8.982943899999999982e-01
2.220000000000000000e+02,8.974164100000000532e-01
2.230000000000000000e+02,8.965334299999999645e-01
2.240000000000000000e+02,8.956454400000000149e-01
2.250000000000000000e+02,8.947524399999999822e-01
2.260000000000000000e+02,8.938543799999999484e-01
2.270000000000000000e+02,8.929512499999999742e-01
2.280000000000000000e+02,8.920430499999999485e-01
2.290000000000000000e+02,8.911298500000000011e-01
2.300000000000000000e+02,8.902115800000000023e-01
2.310000000000000000e+02,8.892883099999999708e-01
2.320000000000000000e+02,8.883600200000000280e-01
2.330000000000000000e+02,8.874267900000000209e-01
2.340000000000000000e+02,8.864885599999999810e-01
2.350000000000000000e+02,8.855454900000000462e-01
2.360000000000000000e+02,8.845975400000000155e-01
2.370000000000000000e+02,8.836446999999999496e-01
2.380000000000000000e+02,8.826870900000000075e-01
2.390000000000000000e+02,8.817247200000000174e-01
2.400000000000000000e+02,8.807576299999999581e-01
2.410000000000000000e+02,8.797858400000000412e-01
2.420000000000000000e+02,8.788094499999999920e-01
2.430000000000000000e+02,8.778284800000000221e-01
2.440000000000000000e+02,8.768430400000000180e-01
2.450000000000000000e+02,8.758531200000000405e-01
2.460000000000000000e+02,8.748588600000000159e-01
2.470000000000000000e+02,8.738603000000000343e-01
2.480000000000000000e+02,8.728575100000000031e-01
2.490000000000000000e+02,8.718506700000000498e-01
2.500000000000000000e+02,8.708397700000000130e-01
2.510000000000000000e+02,8.698249500000000412e-01
2.520000000000000000e+02,8.688063599999999997e-01
2.530000000000000000e+02,8.677840199999999893e-01
2.540000000000000000e+02,8.667581699999999945e-01
2.550000000000000000e+02,8.657288600000000445e-01
2.560000000000000000e+02,8.646961499999999967e-01
2.570000000000000000e+02,8.636602799999999469e-01
2.580000000000000000e+02,8.626213099999999745e-01
2.590000000000000000e+02,8.615794199999999847e-01
2.600000000000000000e+02,8.605347300000000255e-01
2.610000000000000000e+02,8.594873499999999833e-01
2.620000000000000000e+02,8.584374200000000066e-01
2.630000000000000000e+02,8.573851599999999795e-01
2.640000000000000000e+02,8.563306299999999815e-01
2.650000000000000000e+02,8.552739599999999998e-01
2.660000000000000000e+02,8.542153799999999686e-01
2.670000000000000000e+02,8.531550199999999862e-01
2.680000000000000000e+02,8.520929799999999998e-01
2.690000000000000000e+02,8.510294600000000154e-01
2.700000000000000000e+02,8.499646199999999485e-01
2.710000000000000000e+02,8.488985300000000400e-01
2.720000000000000000e+02,8.478314300000000525e-01
2.730000000000000000e+02,8.467634899999999520e-01
2.740000000000000000e+02,8.456948399999999477e-01
2.750000000000000000e+02,8.446256500000000056e-01
2.760000000000000000e+02,8.435560500000000017e-01
2.770000000000000000e+02,8.424861999999999629e-01
2.780000000000000000e+02,8.414163000000000059e-01
2.790000000000000000e+02,8.403465199999999857e-01
2.800000000000000000e+02,8.392769700000000110e-01
2.810000000000000000e+02,8.382077799999999579e-01
2.820000000000000000e+02,8.371391900000000330e-01
2.830000000000000000e+02,8.360712500000000436e-01
2.840000000000000000e+02,8.350042100000000245e-01
2.850000000000000000e+02,8.339381200000000049e-01
2.860000000000000000e+02,8.328732300000000199e-01
2.870000000000000000e+02,8.318095800000000484e-01
2.880000000000000000e+02,8.307474299999999534e-01
2.890000000000000000e+02,8.296867599999999676e-01
2.900000000000000000e+02,8.286278799999999833e-01
2.910000000000000000e+02,8.275708000000000508e-01
2.920000000000000000e+02,8.265156700000000356e-01
2.930000000000000000e+02,8.254626999999999937e-01
2.940000000000000000e+02,8.244119899999999834e-01
2.950000000000000000e+02,8.233635999999999733e-01
2.960000000000000000e+02,8.223177200000000298e-01
2.970000000000000000e+02,8.212743999999999600e-01
2.980000000000000000e+02,8.202338200000000024e-01
2.990000000000000000e+02,8.191961100000000329e-01
3.000000000000000000e+02,8.181613100000000305e-01
3.010000000000000000e+02,8.171296099999999507e-01
3.020000000000000000e+02,8.161010699999999840e-01
3.030000000000000000e+02,8.150757600000000380e-01
3.040000000000000000e+02,8.140538299999999783e-01
3.050000000000000000e+02,8.130354300000000034e-01
3.060000000000000000e+02,8.120205400000000129e-01
3.070000000000000000e+02,8.110092899999999938e-01
3.080000000000000000e+02,8.100017900000000548e-01
3.090000000000000000e+02,8.089981099999999925e-01
3.100000000000000000e+02,8.079983600000000266e-01
3.110000000000000000e+02,8.070025400000000459e-01
3.120000000000000000e+02,8.060108999999999746e-01
3.130000000000000000e+02,8.050233100000000475e-01
3.140000000000000000e+02,8.040400100000000272e-01
3.150000000000000000e+02,8.030609499999999956e-01
3.160000000000000000e+02,8.020862899999999795e-01
3.170000000000000000e+02,8.011160499999999685e-01
3.180000000000000000e+02,8.001503300000000207e-01
3.190000000000000000e+02,7.991891500000000148e-01
3.200000000000000000e+02,7.982326100000000091e-01
3.210000000000000000e+02,7.972807899999999615e-01
3.220000000000000000e+02,7.963336699999999935e-01
3.230000000000000000e+02,7.953913200000000128e-01
3.240000000000000000e+02,7.944538599999999562e-01
3.250000000000000000e+02,7.935212900000000458e-01
3.260000000000000000e+02,7.925937199999999461e-01
3.270000000000000000e+02,7.916710999999999609e-01
3.280000000000000000e+02,7.907535999999999454e-01
3.290000000000000000e+02,7.898411800000000316e-01
3.300000000000000000e+02,7.889338700000000371e-01
3.310000000000000000e+02,7.880318200000000495e-01
3.320000000000000000e+02,7.871350000000000291e-01
3.330000000000000000e+02,7.862434400000000156e-01
3.340000000000000000e+02,7.853572399999999565e-01
3.350000000000000000e+02,7.844763999999999626e-01
3.360000000000000000e+02,7.836009900000000528e-01
3.370000000000000000e+02,7.827309999999999546e-01
3.380000000000000000e+02,7.818665500000000490e-01
3.390000000000000000e+02,7.810076500000000532e-01
3.400000000000000000e+02,7.801542900000000280e-01
3.410000000000000000e+02,7.793065900000000212e-01
3.420000000000000000e+02,7.784645599999999721e-01
3.430000000000000000e+02,7.776281800000000022e-01
3.440000000000000000e+02,7.767975900000000378e-01
3.450000000000000000e+02,7.759727800000000286e-01
3.460000000000000000e+02,7.751538199999999934e-01
3.470000000000000000e+02,7.743406900000000537e-01
3.480000000000000000e+02,7.735334600000000060e-01
3.490000000000000000e+02,7.727321999999999802e-01
3.500000000000000000e+02,7.719368899999999867e-01
3.510000000000000000e+02,7.711476699999999518e-01
3.520000000000000000e+02,7.703645199999999971e-01
3.530000000000000000e+02,7.695874600000000010e-01
3.540000000000000000e+02,7.688165900000000219e-01
3.550000000000000000e+02,7.680519199999999991e-01
3.560000000000000000e+02,7.672935699999999803e-01
3.570000000000000000e+02,7.665414799999999973e-01
3.580000000000000000e+02,7.657957699999999868e-01
3.590000000000000000e+02,7.650564899999999779e-01
3.600000000000000000e+02,7.643236500000000211e-01
3.610000000000000000e+02,7.635973099999999736e-01
3.620000000000000000e+02,7.628775800000000551e-01
3.630000000000000000e+02,7.621644699999999828e-01
3.640000000000000000e+02,7.614580399999999472e-01
3.650000000000000000e+02,7.607583399999999774e-01
3.660000000000000000e+02,7.600654999999999495e-01
3.670000000000000000e+02,7.593795100000000353e-01
3.680000000000000000e+02,7.587004299999999812e-01
3.690000000000000000e+02,7.580283899999999964e-01
3.700000000000000000e+02,7.573634399999999989e-01
3.710000000000000000e+02,7.567056399999999572e-01
3.720000000000000000e+02,7.560550600000000010e-01
3.730000000000000000e+02,7.554117399999999982e-01
3.740000000000000000e+02,7.547758799999999546e-01
3.750000000000000000e+02,7.541474700000000420e-01
3.760000000000000000e+02,7.535265700000000066e-01
3.770000000000000000e+02,7.529133599999999760e-01
3.780000000000000000e+02,7.523078300000000107e-01
3.790000000000000000e+02,7.517101800000000056e-01
3.800000000000000000e+02,7.511204500000000506e-01
3.810000000000000000e+02,7.505387700000000217e-01
3.820000000000000000e+02,7.499651899999999483e-01
3.830000000000000000e+02,7.493998400000000393e-01
3.840000000000000000e+02,7.488428400000000096e-01
3.850000000000000000e+02,7.482943499999999970e-01
3.860000000000000000e+02,7.477544000000000413e-01
3.870000000000000000e+02,7.472231999999999763e-01
3.880000000000000000e+02,7.467008200000000429e-01
3.890000000000000000e+02,7.461874499999999744e-01
3.900000000000000000e+02,7.456831299999999718e-01
3.910000000000000000e+02,7.451880600000000410e-01
3.920000000000000000e+02,7.447023999999999866e-01
3.930000000000000000e+02,7.442262800000000178e-01
3.940000000000000000e+02,7.437598100000000212e-01
3.950000000000000000e+02,7.433031799999999523e-01
3.960000000000000000e+02,7.428565599999999991e-01
3.970000000000000000e+02,7.424200800000000378e-01
3.980000000000000000e+02,7.419938999999999840e-01
3.990000000000000000e+02,7.415782199999999547e-01
4.000000000000000000e+02,7.411731499999999473e-01
4.010000000000000000e+02,7.407789200000000074e-01
4.020000000000000000e+02,7.403956699999999502e-01
4.030000000000000000e+02,7.400235499999999744e-01
4.040000000000000000e+02,7.396627700000000250e-01
4.050000000000000000e+02,7.393134199999999989e-01
4.060000000000000000e+02,7.389756400000000447e-01
4.070000000000000000e+02,7.386497300000000044e-01
4.080000000000000000e+02,7.383356699999999995e-01
4.090000000000000000e+02,7.380335900000000171e-01
4.100000000000000000e+02,7.377437399999999812e-01
4.110000000000000000e+02,7.374661000000000133e-01
4.120000000000000000e+02,7.372007400000000210e-01
4.130000000000000000e+02,7.369477700000000020e-01
4.140000000000000000e+02,7.367072099999999457e-01
4.150000000000000000e+02,7.364789800000000053e-01
4.160000000000000000e+02,7.362630999999999482e-01
4.170000000000000000e+02,7.360595500000000069e-01
4.180000000000000000e+02,7.358681000000000250e-01
4.190000000000000000e+02,7.356886299999999546e-01
4.200000000000000000e+02,7.355209000000000330e-01
4.210000000000000000e+02,7.353647399999999612e-01
4.220000000000000000e+02,7.352197799999999894e-01
4.230000000000000000e+02,7.350857299999999928e-01
4.240000000000000000e+02,7.349621100000000018e-01
4.250000000000000000e+02,7.348486199999999524e-01
4.260000000000000000e+02,7.347446699999999886e-01
4.270000000000000000e+02,7.346498399999999984e-01
4.280000000000000000e+02,7.345635299999999646e-01
4.290000000000000000e+02,7.344853300000000473e-01
4.300000000000000000e+02,7.344145800000000390e-01
4.310000000000000000e+02,7.343507999999999702e-01
4.320000000000000000e+02,7.342933999999999850e-01
4.330000000000000000e+02,7.342419599999999713e-01
4.340000000000000000e+02,7.341958299999999937e-01
4.350000000000000000e+02,7.341545800000000010e-01
4.360000000000000000e+02,7.341177500000000133e-01
4.370000000000000000e+02,7.340849000000000402e-01
4.380000000000000000e+02,7.340556400000000092e-01
4.390000000000000000e+02,7.340295900000000096e-01
4.400000000000000000e+02,7.340064600000000272e-01
4.410000000000000000e+02,7.339858400000000005e-01
4.420000000000000000e+02,7.339674800000000054e-01
4.430000000000000000e+02,7.339512099999999650e-01
4.440000000000000000e+02,7.339366699999999577e-01
4.450000000000000000e+02,7.339237899999999648e-01
4.460000000000000000e+02,7.339122900000000227e-01
4.470000000000000000e+02,7.339020400000000333e-01
4.480000000000000000e+02,7.338929199999999486e-01
4.490000000000000000e+02,7.338847499999999746e-01
4.500000000000000000e+02,7.338774799999999709e-01
4.510000000000000000e+02,7.338709199999999822e-01
4.520000000000000000e+02,7.338651400000000269e-01
4.530000000000000000e+02,7.338599000000000094e-01
4.540000000000000000e+02,7.338552499999999590e-01
4.550000000000000000e+02,7.338510200000000205e-01
4.560000000000000000e+02,7.338472600000000012e-01
4.570000000000000000e+02,7.338438600000000145e-01
4.580000000000000000e+02,7.338408199999999493e-01
4.590000000000000000e+02,7.338380199999999798e-01
4.600000000000000000e+02,7.338355199999999634e-01
4.610000000000000000e+02,7.338333099999999609e-01
4.620000000000000000e+02,7.338312299999999455e-01
4.630000000000000000e+02,7.338293799999999756e-01
4.640000000000000000e+02,7.338277100000000219e-01
4.650000000000000000e+02,7.338262199999999735e-01
4.660000000000000000e+02,7.338248499999999730e-01
4.670000000000000000e+02,7.338236000000000203e-01
4.680000000000000000e+02,7.338224100000000361e-01
4.690000000000000000e+02,7.338213900000000178e-01
4.700000000000000000e+02,7.338204400000000183e-01
4.710000000000000000e+02,7.338195400000000479e-01
4.720000000000000000e+02,7.338187699999999536e-01
4.730000000000000000e+02,7.338180499999999995e-01
4.740000000000000000e+02,7.338173399999999846e-01
4.750000000000000000e+02,7.338167399999999674e-01
4.760000000000000000e+02,7.338162099999999688e-01
4.770000000000000000e+02,7.338156700000000310e-01
4.780000000000000000e+02,7.338151899999999506e-01
4.790000000000000000e+02,7.338147799999999998e-01
4.800000000000000000e+02,7.338143599999999989e-01
4.810000000000000000e+02,7.338139399999999979e-01
4.820000000000000000e+02,7.338136400000000448e-01
4.830000000000000000e+02,7.338132899999999514e-01
4.840000000000000000e+02,7.338129899999999983e-01
4.850000000000000000e+02,7.338127500000000136e-01
4.860000000000000000e+02,7.338125100000000289e-01
4.870000000000000000e+02,7.338122700000000442e-01
4.880000000000000000e+02,7.338120299999999485e-01
4.890000000000000000e+02,7.338118599999999825e-01
4.900000000000000000e+02,7.338116199999999978e-01
4.910000000000000000e+02,7.338114999999999499e-01
4.920000000000000000e+02,7.338113200000000447e-01
4.930000000000000000e+02,7.338111400000000284e-01
4.940000000000000000e+02,7.338110199999999805e-01
4.950000000000000000e+02,7.338109000000000437e-01
4.960000000000000000e+02,7.338107799999999958e-01
4.970000000000000000e+02,7.338106599999999480e-01
4.980000000000000000e+02,7.338105400000000111e-01
4.990000000000000000e+02,7.338104199999999633e-01
5.000000000000000000e+02,7.338103700000000451e-01
5.010000000000000000e+02,7.338102499999999973e-01
5.020000000000000000e+02,7.338101900000000288e-01
5.030000000000000000e+02,7.338101299999999494e-01
5.040000000000000000e+02,7.338100100000000126e-01
5.050000000000000000e+02,7.338099500000000441e-01
5.060000000000000000e+02,7.338098899999999647e-01
5.070000000000000000e+02,7.338098299999999963e-01
5.080000000000000000e+02,7.338097700000000279e-01
5.090000000000000000e+02,7.338097099999999484e-01
5.100000000000000000e+02,7.338096499999999800e-01
5.110000000000000000e+02,7.338096499999999800e-01
5.120000000000000000e+02,7.338095900000000116e-01
5.130000000000000000e+02,7.338095300000000432e-01
5.140000000000000000e+02,7.338094699999999637e-01
5.150000000000000000e+02,7.338094699999999637e-01
5.160000000000000000e+02,7.338094099999999953e-01
5.170000000000000000e+02,7.338094099999999953e-01
5.180000000000000000e+02,7.338093500000000269e-01
5.190000000000000000e+02,7.338093500000000269e-01
5.200000000000000000e+02,7.338092899999999474e-01
5.210000000000000000e+02,7.338092899999999474e-01
5.220000000000000000e+02,7.338092299999999790e-01
5.230000000000000000e+02,7.338092299999999790e-01
5.240000000000000000e+02,7.338092299999999790e-01
5.250000000000000000e+02,7.338091700000000106e-01
5.260000000000000000e+02,7.338091700000000106e-01
5.270000000000000000e+02,7.338091700000000106e-01
5.280000000000000000e+02,7.338091100000000422e-01
5.290000000000000000e+02,7.338091100000000422e-01
5.300000000000000000e+02,7.338091100000000422e-01
5.310000000000000000e+02,7.338090499999999627e-01
5.320000000000000000e+02,7.338090499999999627e-01
5.330000000000000000e+02,7.338090499999999627e-01
5.340000000000000000e+02,7.338090499999999627e-01
5.350000000000000000e+02,7.338089899999999943e-01
5.360000000000000000e+02,7.338089899999999943e-01
5.370000000000000000e+02,7.338089899999999943e-01
5.380000000000000000e+02,7.338089899999999943e-01
5.390000000000000000e+02,7.338089899999999943e-01
5.400000000000000000e+02,7.338089899999999943e-01
5.410000000000000000e+02,7.338089300000000259e-01
5.420000000000000000e+02,7.338089300000000259e-01
5.430000000000000000e+02,7.338089300000000259e-01
5.440000000000000000e+02,7.338089300000000259e-01
5.450000000000000000e+02,7.338089300000000259e-01
5.460000000000000000e+02,7.338089300000000259e-01
5.470000000000000000e+02,7.338089300000000259e-01
5.480000000000000000e+02,7.338088799999999967e-01
5.490000000000000000e+02,7.338088799999999967e-01
5.500000000000000000e+02,7.338088799999999967e-01
5.510000000000000000e+02,7.338088799999999967e-01
5.520000000000000000e+02,7.338088799999999967e-01
5.530000000000000000e+02,7.338088799999999967e-01
5.540000000000000000e+02,7.338088799999999967e-01
5.550000000000000000e+02,7.338088799999999967e-01
5.560000000000000000e+02,7.338088799999999967e-01
5.570000000000000000e+02,7.338088799999999967e-01
5.580000000000000000e+02,7.338088200000000283e-01
5.590000000000000000e+02,7.338088200000000283e-01
5.600000000000000000e+02,7.338088200000000283e-01
5.610000000000000000e+02,7.338088200000000283e-01
5.620000000000000000e+02,7.338088200000000283e-01
5.630000000000000000e+02,7.338088200000000283e-01
5.640000000000000000e+02,7.338088200000000283e-01
5.650000000000000000e+02,7.338088200000000283e-01
5.660000000000000000e+02,7.338088200000000283e-01
5.670000000000000000e+02,7.338088200000000283e-01
5.680000000000000000e+02,7.338088200000000283e-01
5.690000000000000000e+02,7.338088200000000283e-01
5.700000000000000000e+02,7.338088200000000283e-01
5.710000000000000000e+02,7.338088200000000283e-01
5.720000000000000000e+02,7.338088200000000283e-01
5.730000000000000000e+02,7.338088200000000283e-01
5.740000000000000000e+02,7.338088200000000283e-01
5.750000000000000000e+02,7.338087599999999489e-01
5.760000000000000000e+02,7.338087599999999489e-01
5.770000000000000000e+02,7.338087599999999489e-01
5.780000000000000000e+02,7.338087599999999489e-01
5.790000000000000000e+02,7.338087599999999489e-01
5.800000000000000000e+02,7.338087599999999489e-01
5.810000000000000000e+02,7.338087599999999489e-01
5.820000000000000000e+02,7.338087599999999489e-01
5.830000000000000000e+02,7.338087599999999489e-01
5.840000000000000000e+02,7.338087599999999489e-01
5.850000000000000000e+02,7.338087599999999489e-01
5.860000000000000000e+02,7.338087599999999489e-01
5.870000000000000000e+02,7.338087599999999489e-01
5.880000000000000000e+02,7.338087599999999489e-01
5.890000000000000000e+02,7.338087599999999489e-01
5.900000000000000000e+02,7.338087599999999489e-01
5.910000000000000000e+02,7.338087599999999489e-01
5.920000000000000000e+02,7.338087599999999489e-01
5.930000000000000000e+02,7.338087599999999489e-01
5.940000000000000000e+02,7.338087599999999489e-01
5.950000000000000000e+02,7.338087599999999489e-01
5.960000000000000000e+02,7.338087599999999489e-01
5.970000000000000000e+02,7.338087599999999489e-01
5.980000000000000000e+02,7.338087599999999489e-01
5.990000000000000000e+02,7.338087599999999489e-01