# Time [s], Temperature [C]
1.000000000000000000e+00,2.500000000000000000e+01
2.000000000000000000e+00,2.500000000000000000e+01
3.000000000000000000e+00,2.500000000000000000e+01
4.000000000000000000e+00,2.500000000000000000e+01
5.000000000000000000e+00,2.500000599999999906e+01
6.000000000000000000e+00,2.500003799999999998e+01
7.000000000000000000e+00,2.500017499999999870e+01
8.000000000000000000e+00,2.500063700000000111e+01
9.000000000000000000e+00,2.500193799999999911e+01
1.000000000000000000e+01,2.500509500000000074e+01
1.100000000000000000e+01,2.501184299999999894e+01
1.200000000000000000e+01,2.502482799999999941e+01
1.300000000000000000e+01,2.504769299999999888e+01
1.400000000000000000e+01,2.508506200000000064e+01
1.500000000000000000e+01,2.514242000000000132e+01
1.600000000000000000e+01,2.522592399999999913e+01
1.700000000000000000e+01,2.534217100000000045e+01
1.800000000000000000e+01,2.549797399999999925e+01
1.900000000000000000e+01,2.570013600000000054e+01
2.000000000000000000e+01,2.595526699999999920e+01
2.100000000000000000e+01,2.626962999999999937e+01
2.200000000000000000e+01,2.664901499999999857e+01
2.300000000000000000e+01,2.709870899999999949e+01
2.400000000000000000e+01,2.762332200000000171e+01
2.500000000000000000e+01,2.822685200000000094e+01
2.600000000000000000e+01,2.891265900000000144e+01
2.700000000000000000e+01,2.968336100000000144e+01
2.800000000000000000e+01,3.054097000000000151e+01
2.900000000000000000e+01,3.148683000000000121e+01
3.000000000000000000e+01,3.252172500000000355e+01
3.100000000000000000e+01,3.364580500000000285e+01
3.200000000000000000e+01,3.485880300000000176e+01
3.300000000000000000e+01,3.615999999999999659e+01
3.400000000000000000e+01,3.754835500000000081e+01
3.500000000000000000e+01,3.902255600000000157e+01
3.600000000000000000e+01,4.058095900000000000e+01
3.700000000000000000e+01,4.222174799999999806e+01
3.800000000000000000e+01,4.394303500000000184e+01
3.900000000000000000e+01,4.574270200000000131e+01
4.000000000000000000e+01,4.761849600000000038e+01
4.100000000000000000e+01,4.956802700000000073e+01
4.200000000000000000e+01,5.158892800000000278e+01
4.300000000000000000e+01,5.367878000000000327e+01
4.400000000000000000e+01,5.583504099999999681e+01
4.500000000000000000e+01,5.805532099999999929e+01
4.600000000000000000e+01,6.033696400000000182e+01
4.700000000000000000e+01,6.267770800000000264e+01
4.800000000000000000e+01,6.507511100000000681e+01
4.900000000000000000e+01,6.752674100000000124e+01
5.000000000000000000e+01,7.003029600000000698e+01
5.100000000000000000e+01,7.258349599999999668e+01
5.200000000000000000e+01,7.518388400000000615e+01
5.300000000000000000e+01,7.782935299999999756e+01
5.400000000000000000e+01,8.051760899999999310e+01
5.500000000000000000e+01,8.324636800000000392e+01
5.600000000000000000e+01,8.601372499999999377e+01
5.700000000000000000e+01,8.881760400000000288e+01
5.800000000000000000e+01,9.165608199999999783e+01
5.900000000000000000e+01,9.452735099999999591e+01
6.000000000000000000e+01,9.742950399999999433e+01
6.100000000000000000e+01,1.003607599999999991e+02
6.200000000000000000e+01,1.033192999999999984e+02
6.300000000000000000e+01,1.063035399999999981e+02
6.400000000000000000e+01,1.093117400000000004e+02
6.500000000000000000e+01,1.123423300000000040e+02
6.600000000000000000e+01,1.153937600000000003e+02
6.700000000000000000e+01,1.184643999999999977e+02
6.800000000000000000e+01,1.215530300000000068e+02
6.900000000000000000e+01,1.246581800000000015e+02
7.000000000000000000e+01,1.277785499999999956e+02
7.100000000000000000e+01,1.309128399999999885e+02
7.200000000000000000e+01,1.340600100000000054e+02
7.300000000000000000e+01,1.372188299999999970e+02
7.400000000000000000e+01,1.403880900000000054e+02
7.500000000000000000e+01,1.435666799999999910e+02
7.600000000000000000e+01,1.467534799999999962e+02
7.700000000000000000e+01,1.499473999999999876e+02
7.800000000000000000e+01,1.531474200000000110e+02
7.900000000000000000e+01,1.563525400000000047e+02
8.000000000000000000e+01,1.595618299999999863e+02
8.100000000000000000e+01,1.627744099999999889e+02
8.200000000000000000e+01,1.659894899999999893e+02
8.300000000000000000e+01,1.692062699999999893e+02
8.400000000000000000e+01,1.724239800000000002e+02
8.500000000000000000e+01,1.756419099999999958e+02
8.600000000000000000e+01,1.788592999999999904e+02
8.700000000000000000e+01,1.820754399999999862e+02
8.800000000000000000e+01,1.852896000000000072e+02
8.900000000000000000e+01,1.885010800000000017e+02
9.000000000000000000e+01,1.917091800000000035e+02
9.100000000000000000e+01,1.949132099999999923e+02
9.200000000000000000e+01,1.981125000000000114e+02
9.300000000000000000e+01,2.013065200000000061e+02
9.400000000000000000e+01,2.044946700000000135e+02
9.500000000000000000e+01,2.076764100000000042e+02
9.600000000000000000e+01,2.108512699999999995e+02
9.700000000000000000e+01,2.140188100000000020e+02
9.800000000000000000e+01,2.171785299999999950e+02
9.900000000000000000e+01,2.203299299999999903e+02
1.000000000000000000e+02,2.234725799999999936e+02
1.010000000000000000e+02,2.266059600000000103e+02
1.020000000000000000e+02,2.297296800000000019e+02
1.030000000000000000e+02,2.328431099999999958e+02
1.040000000000000000e+02,2.359458300000000008e+02
1.050000000000000000e+02,2.390372800000000097e+02
1.060000000000000000e+02,2.421170799999999872e+02
1.070000000000000000e+02,2.451847999999999956e+02
1.080000000000000000e+02,2.482400100000000123e+02
1.090000000000000000e+02,2.512823899999999924e+02
1.100000000000000000e+02,2.543116100000000017e+02
1.110000000000000000e+02,2.573272099999999796e+02
1.120000000000000000e+02,2.603288000000000011e+02
1.130000000000000000e+02,2.633160100000000057e+02
1.140000000000000000e+02,2.662885099999999738e+02
1.150000000000000000e+02,2.692457600000000184e+02
1.160000000000000000e+02,2.721872900000000186e+02
1.170000000000000000e+02,2.751127599999999802e+02
1.180000000000000000e+02,2.780215499999999906e+02
1.190000000000000000e+02,2.809131499999999733e+02
1.200000000000000000e+02,2.837871700000000033e+02
1.210000000000000000e+02,2.866432500000000232e+02
1.220000000000000000e+02,2.894810200000000009e+02
1.230000000000000000e+02,2.922998699999999985e+02
1.240000000000000000e+02,2.950993700000000217e+02
1.250000000000000000e+02,2.978790300000000002e+02
1.260000000000000000e+02,3.006382100000000150e+02
1.270000000000000000e+02,3.033764300000000276e+02
1.280000000000000000e+02,3.060929300000000239e+02
1.290000000000000000e+02,3.087869900000000030e+02
1.300000000000000000e+02,3.114577899999999886e+02
1.310000000000000000e+02,3.141045199999999795e+02
1.320000000000000000e+02,3.167263800000000060e+02
1.330000000000000000e+02,3.193224500000000035e+02
1.340000000000000000e+02,3.218917799999999829e+02
1.350000000000000000e+02,3.244335300000000188e+02
1.360000000000000000e+02,3.269465599999999768e+02
1.370000000000000000e+02,3.294299300000000130e+02
1.380000000000000000e+02,3.318824500000000057e+02
1.390000000000000000e+02,3.343028899999999908e+02
1.400000000000000000e+02,3.366899999999999977e+02
1.410000000000000000e+02,3.390425700000000120e+02
1.420000000000000000e+02,3.413592199999999934e+02
1.430000000000000000e+02,3.436384899999999902e+02
1.440000000000000000e+02,3.458793000000000006e+02
1.450000000000000000e+02,3.480801399999999717e+02
1.460000000000000000e+02,3.502398099999999772e+02
1.470000000000000000e+02,3.523571200000000090e+02
1.480000000000000000e+02,3.544309400000000210e+02
1.490000000000000000e+02,3.564600500000000238e+02
1.500000000000000000e+02,3.584434499999999844e+02
1.510000000000000000e+02,3.603802800000000275e+02
1.520000000000000000e+02,3.622696199999999749e+02
1.530000000000000000e+02,3.641109900000000152e+02
1.540000000000000000e+02,3.659038400000000024e+02
1.550000000000000000e+02,3.676479800000000182e+02
1.560000000000000000e+02,3.693433800000000247e+02
1.570000000000000000e+02,3.709904199999999719e+02
1.580000000000000000e+02,3.725895699999999806e+02
1.590000000000000000e+02,3.741416300000000206e+02
1.600000000000000000e+02,3.756476400000000240e+02
1.610000000000000000e+02,3.771088300000000118e+02
1.620000000000000000e+02,3.785267900000000054e+02
1.630000000000000000e+02,3.799031699999999887e+02
1.640000000000000000e+02,3.812401699999999778e+02
1.650000000000000000e+02,3.825398299999999949e+02
1.660000000000000000e+02,3.838047500000000127e+02
1.670000000000000000e+02,3.850374100000000226e+02
1.680000000000000000e+02,3.862405699999999911e+02
1.690000000000000000e+02,3.874171799999999735e+02
1.700000000000000000e+02,3.885701599999999871e+02
1.710000000000000000e+02,3.897025100000000180e+02
1.720000000000000000e+02,3.908174399999999764e+02
1.730000000000000000e+02,3.919179100000000062e+02
1.740000000000000000e+02,3.930068099999999731e+02
1.750000000000000000e+02,3.940874000000000024e+02
1.760000000000000000e+02,3.951627199999999789e+02
1.770000000000000000e+02,3.962358699999999772e+02
1.780000000000000000e+02,3.973095400000000268e+02
1.790000000000000000e+02,3.983868400000000065e+02
1.800000000000000000e+02,3.994708600000000160e+02
1.810000000000000000e+02,4.005642399999999839e+02
1.820000000000000000e+02,4.016697100000000091e+02
1.830000000000000000e+02,4.027901600000000144e+02
1.840000000000000000e+02,4.039283100000000104e+02
1.850000000000000000e+02,4.050869099999999889e+02
1.860000000000000000e+02,4.062689500000000180e+02
1.870000000000000000e+02,4.074772300000000200e+02
1.880000000000000000e+02,4.087144799999999805e+02
1.890000000000000000e+02,4.099836700000000178e+02
1.900000000000000000e+02,4.112876299999999787e+02
1.910000000000000000e+02,4.126301300000000083e+02
1.920000000000000000e+02,4.140138200000000097e+02
1.930000000000000000e+02,4.154427800000000275e+02
1.940000000000000000e+02,4.169212999999999738e+02
1.950000000000000000e+02,4.184524499999999989e+02
1.960000000000000000e+02,4.200405900000000088e+02
1.970000000000000000e+02,4.216907699999999863e+02
1.980000000000000000e+02,4.234078999999999837e+02
1.990000000000000000e+02,4.251979999999999791e+02
2.000000000000000000e+02,4.270662199999999871e+02
2.010000000000000000e+02,4.290195899999999938e+02
2.020000000000000000e+02,4.310645400000000222e+02
2.030000000000000000e+02,4.332091699999999719e+02
2.040000000000000000e+02,4.354599900000000048e+02
2.050000000000000000e+02,4.378265400000000227e+02
2.060000000000000000e+02,4.403160399999999868e+02
2.070000000000000000e+02,4.429368600000000242e+02
2.080000000000000000e+02,4.456967200000000275e+02
2.090000000000000000e+02,4.486014700000000062e+02
2.100000000000000000e+02,4.516555200000000241e+02
2.110000000000000000e+02,4.548586999999999989e+02
2.120000000000000000e+02,4.582055700000000229e+02
2.130000000000000000e+02,4.616852400000000216e+02
2.140000000000000000e+02,4.652728299999999990e+02
2.150000000000000000e+02,4.689376199999999812e+02
2.160000000000000000e+02,4.726364399999999932e+02
2.170000000000000000e+02,4.763228500000000167e+02
2.180000000000000000e+02,4.799514800000000037e+02
2.190000000000000000e+02,4.834886799999999880e+02
2.200000000000000000e+02,4.869185200000000009e+02
2.210000000000000000e+02,4.902450000000000045e+02
2.220000000000000000e+02,4.934818099999999959e+02
2.230000000000000000e+02,4.966421500000000151e+02
2.240000000000000000e+02,4.997363899999999717e+02
2.250000000000000000e+02,5.027708099999999831e+02
2.260000000000000000e+02,5.057502700000000004e+02
2.270000000000000000e+02,5.086791999999999803e+02
2.280000000000000000e+02,5.115607600000000161e+02
2.290000000000000000e+02,5.143982499999999618e+02
2.300000000000000000e+02,5.171943999999999733e+02
2.310000000000000000e+02,5.199511099999999715e+02
2.320000000000000000e+02,5.226703499999999849e+02
2.330000000000000000e+02,5.253535200000000032e+02
2.340000000000000000e+02,5.280028700000000299e+02
2.350000000000000000e+02,5.306193200000000161e+02
2.360000000000000000e+02,5.332036100000000260e+02
2.370000000000000000e+02,5.357572000000000116e+02
2.380000000000000000e+02,5.382816199999999753e+02
2.390000000000000000e+02,5.407773999999999432e+02
2.400000000000000000e+02,5.432456100000000561e+02
2.410000000000000000e+02,5.456868899999999485e+02
2.420000000000000000e+02,5.481021100000000388e+02
2.430000000000000000e+02,5.504918800000000374e+02
2.440000000000000000e+02,5.528566299999999956e+02
2.450000000000000000e+02,5.551971999999999525e+02
2.460000000000000000e+02,5.575144000000000233e+02
2.470000000000000000e+02,5.598084099999999808e+02
2.480000000000000000e+02,5.620795900000000529e+02
2.490000000000000000e+02,5.643293499999999767e+02
2.500000000000000000e+02,5.665575599999999667e+02
2.510000000000000000e+02,5.687643399999999474e+02
2.520000000000000000e+02,5.709505599999999959e+02
2.530000000000000000e+02,5.731160300000000234e+02
2.540000000000000000e+02,5.752617199999999684e+02
2.550000000000000000e+02,5.773880000000000337e+02
2.560000000000000000e+02,5.794948100000000295e+02
2.570000000000000000e+02,5.815826399999999694e+02
2.580000000000000000e+02,5.836519200000000183e+02
2.590000000000000000e+02,5.857032500000000255e+02
2.600000000000000000e+02,5.877363299999999526e+02
2.610000000000000000e+02,5.897516500000000406e+02
2.620000000000000000e+02,5.917495699999999488e+02
2.630000000000000000e+02,5.937304100000000062e+02
2.640000000000000000e+02,5.956941500000000360e+02
2.650000000000000000e+02,5.976409300000000258e+02
2.660000000000000000e+02,5.995715300000000525e+02
2.670000000000000000e+02,6.014858400000000529e+02
2.680000000000000000e+02,6.033839100000000144e+02
2.690000000000000000e+02,6.052664800000000014e+02
2.700000000000000000e+02,6.071330000000000382e+02
2.710000000000000000e+02,6.089841900000000123e+02
2.720000000000000000e+02,6.108200100000000248e+02
2.730000000000000000e+02,6.126410499999999502e+02
2.740000000000000000e+02,6.144471399999999903e+02
2.750000000000000000e+02,6.162382199999999557e+02
2.760000000000000000e+02,6.180147100000000364e+02
2.770000000000000000e+02,6.197769799999999805e+02
2.780000000000000000e+02,6.215249599999999646e+02
2.790000000000000000e+02,6.232588500000000522e+02
2.800000000000000000e+02,6.249785200000000032e+02
2.810000000000000000e+02,6.266846299999999701e+02
2.820000000000000000e+02,6.283771400000000540e+02
2.830000000000000000e+02,6.300561500000000024e+02
2.840000000000000000e+02,6.317216200000000299e+02
2.850000000000000000e+02,6.333738399999999729e+02
2.860000000000000000e+02,6.350130000000000337e+02
2.870000000000000000e+02,6.366390999999999849e+02
2.880000000000000000e+02,6.382523200000000543e+02
2.890000000000000000e+02,6.398528400000000147e+02
2.900000000000000000e+02,6.414406699999999546e+02
2.910000000000000000e+02,6.430159300000000258e+02
2.920000000000000000e+02,6.445789200000000392e+02
2.930000000000000000e+02,6.461296999999999571e+02
2.940000000000000000e+02,6.476684000000000196e+02
2.950000000000000000e+02,6.491948200000000497e+02
2.960000000000000000e+02,6.507091699999999719e+02
2.970000000000000000e+02,6.522119099999999889e+02
2.980000000000000000e+02,6.537027600000000120e+02
2.990000000000000000e+02,6.551819500000000289e+02
3.000000000000000000e+02,6.566495999999999640e+02
3.010000000000000000e+02,6.581057700000000068e+02
3.020000000000000000e+02,6.595505399999999554e+02
3.030000000000000000e+02,6.609843100000000504e+02
3.040000000000000000e+02,6.624067999999999756e+02
3.050000000000000000e+02,6.638182399999999461e+02
3.060000000000000000e+02,6.652185699999999997e+02
3.070000000000000000e+02,6.666077900000000227e+02
3.080000000000000000e+02,6.679865099999999529e+02
3.090000000000000000e+02,6.693543700000000172e+02
3.100000000000000000e+02,6.707117299999999886e+02
3.110000000000000000e+02,6.720587199999999939e+02
3.120000000000000000e+02,6.733949000000000069e+02
3.130000000000000000e+02,6.747210099999999784e+02
3.140000000000000000e+02,6.760367400000000089e+02
3.150000000000000000e+02,6.773421600000000353e+02
3.160000000000000000e+02,6.786375100000000202e+02
3.170000000000000000e+02,6.799228500000000395e+02
3.180000000000000000e+02,6.811981799999999794e+02
3.190000000000000000e+02,6.824636199999999917e+02
3.200000000000000000e+02,6.837192400000000134e+02
3.210000000000000000e+02,6.849651499999999942e+02
3.220000000000000000e+02,6.862014799999999468e+02
3.230000000000000000e+02,6.874282799999999725e+02
3.240000000000000000e+02,6.886454499999999825e+02
3.250000000000000000e+02,6.898532099999999900e+02
3.260000000000000000e+02,6.910515699999999697e+02
3.270000000000000000e+02,6.922407200000000103e+02
3.280000000000000000e+02,6.934205899999999474e+02
3.290000000000000000e+02,6.945914299999999457e+02
3.300000000000000000e+02,6.957532300000000305e+02
3.310000000000000000e+02,6.969061299999999619e+02
3.320000000000000000e+02,6.980498700000000554e+02
3.330000000000000000e+02,6.991847500000000082e+02
3.340000000000000000e+02,7.003109699999999975e+02
3.350000000000000000e+02,7.014284099999999853e+02
3.360000000000000000e+02,7.025371699999999464e+02
3.370000000000000000e+02,7.036373300000000199e+02
3.380000000000000000e+02,7.047291300000000547e+02
3.390000000000000000e+02,7.058122600000000375e+02
3.400000000000000000e+02,7.068870799999999690e+02
3.410000000000000000e+02,7.079536100000000260e+02
3.420000000000000000e+02,7.090118999999999687e+02
3.430000000000000000e+02,7.100618899999999485e+02
3.440000000000000000e+02,7.111038200000000415e+02
3.450000000000000000e+02,7.121375699999999824e+02
3.460000000000000000e+02,7.131633900000000494e+02
3.470000000000000000e+02,7.141812700000000405e+02
3.480000000000000000e+02,7.151912800000000061e+02
3.490000000000000000e+02,7.161934199999999464e+02
3.500000000000000000e+02,7.171878699999999753e+02
3.510000000000000000e+02,7.181745600000000422e+02
3.520000000000000000e+02,7.191535599999999704e+02
3.530000000000000000e+02,7.201250000000000000e+02
3.540000000000000000e+02,7.210889300000000048e+02
3.550000000000000000e+02,7.220453499999999849e+02
3.560000000000000000e+02,7.229941400000000158e+02
3.570000000000000000e+02,7.239358499999999594e+02
3.580000000000000000e+02,7.248701800000000048e+02
3.590000000000000000e+02,7.257971800000000258e+02
3.600000000000000000e+02,7.267169800000000350e+02
3.610000000000000000e+02,7.276296999999999571e+02
3.620000000000000000e+02,7.285352799999999434e+02
3.630000000000000000e+02,7.294338999999999942e+02
3.640000000000000000e+02,7.303253799999999956e+02
3.650000000000000000e+02,7.312099600000000237e+02
3.660000000000000000e+02,7.320877699999999777e+02
3.670000000000000000e+02,7.329587400000000343e+02
3.680000000000000000e+02,7.338230600000000550e+02
3.690000000000000000e+02,7.346804200000000264e+02
3.700000000000000000e+02,7.355311900000000378e+02
3.710000000000000000e+02,7.363753100000000131e+02
3.720000000000000000e+02,7.372128900000000158e+02
3.730000000000000000e+02,7.380440099999999575e+02
3.740000000000000000e+02,7.388686500000000024e+02
3.750000000000000000e+02,7.396868899999999485e+02
3.760000000000000000e+02,7.404986599999999726e+02
3.770000000000000000e+02,7.413042000000000371e+02
3.780000000000000000e+02,7.421033899999999903e+02
3.790000000000000000e+02,7.428963599999999587e+02
3.800000000000000000e+02,7.436832299999999805e+02
3.810000000000000000e+02,7.444638700000000426e+02
3.820000000000000000e+02,7.452384600000000319e+02
3.830000000000000000e+02,7.460070200000000114e+02
3.840000000000000000e+02,7.467696499999999560e+02
3.850000000000000000e+02,7.475263099999999667e+02
3.860000000000000000e+02,7.482769799999999805e+02
3.870000000000000000e+02,7.490218499999999722e+02
3.880000000000000000e+02,7.497609300000000303e+02
3.890000000000000000e+02,7.504941999999999780e+02
3.900000000000000000e+02,7.512218000000000302e+02
3.910000000000000000e+02,7.519435999999999467e+02
3.920000000000000000e+02,7.526599099999999680e+02
3.930000000000000000e+02,7.533706100000000561e+02
3.940000000000000000e+02,7.540756800000000339e+02
3.950000000000000000e+02,7.547753300000000536e+02
3.960000000000000000e+02,7.554694799999999759e+02
3.970000000000000000e+02,7.561582600000000411e+02
3.980000000000000000e+02,7.568414900000000216e+02
3.990000000000000000e+02,7.575195300000000316e+02
4.000000000000000000e+02,7.581922600000000330e+02
4.010000000000000000e+02,7.588596800000000258e+02
4.020000000000000000e+02,7.595219100000000481e+02
4.030000000000000000e+02,7.601789599999999609e+02
4.040000000000000000e+02,7.608308100000000422e+02
4.050000000000000000e+02,7.614776600000000144e+02
4.060000000000000000e+02,7.621194500000000289e+02
4.070000000000000000e+02,7.627560999999999467e+02
4.080000000000000000e+02,7.633879399999999578e+02
4.090000000000000000e+02,7.640147100000000364e+02
4.100000000000000000e+02,7.646366000000000440e+02
4.110000000000000000e+02,7.652535400000000436e+02
4.120000000000000000e+02,7.658657799999999725e+02
4.130000000000000000e+02,7.664731399999999439e+02
4.140000000000000000e+02,7.670757399999999961e+02
4.150000000000000000e+02,7.676737100000000282e+02
4.160000000000000000e+02,7.682669100000000526e+02
4.170000000000000000e+02,7.688554699999999684e+02
4.180000000000000000e+02,7.694394499999999653e+02
4.190000000000000000e+02,7.700188000000000557e+02
4.200000000000000000e+02,7.705936299999999619e+02
4.210000000000000000e+02,7.711639999999999873e+02
4.220000000000000000e+02,7.717299199999999928e+02
4.230000000000000000e+02,7.722913200000000415e+02
4.240000000000000000e+02,7.728483899999999949e+02
4.250000000000000000e+02,7.734009399999999914e+02
4.260000000000000000e+02,7.739492199999999684e+02
4.270000000000000000e+02,7.744932900000000018e+02
4.280000000000000000e+02,7.750329600000000028e+02
4.290000000000000000e+02,7.755684199999999464e+02
4.300000000000000000e+02,7.760997300000000223e+02
4.310000000000000000e+02,7.766268300000000409e+02
4.320000000000000000e+02,7.771498400000000402e+02
4.330000000000000000e+02,7.776687600000000202e+02
4.340000000000000000e+02,7.781835300000000188e+02
4.350000000000000000e+02,7.786942699999999604e+02
4.360000000000000000e+02,7.792010500000000093e+02
4.370000000000000000e+02,7.797038000000000011e+02
4.380000000000000000e+02,7.802025800000000118e+02
4.390000000000000000e+02,7.806974500000000035e+02
4.400000000000000000e+02,7.811884199999999510e+02
4.410000000000000000e+02,7.816755399999999554e+02
4.420000000000000000e+02,7.821588100000000168e+02
4.430000000000000000e+02,7.826383100000000468e+02
4.440000000000000000e+02,7.831139500000000453e+02
4.450000000000000000e+02,7.835859400000000505e+02
4.460000000000000000e+02,7.840542000000000371e+02
4.470000000000000000e+02,7.845187399999999798e+02
4.480000000000000000e+02,7.849796800000000303e+02
4.490000000000000000e+02,7.854369500000000244e+02
4.500000000000000000e+02,7.858906200000000126e+02
4.510000000000000000e+02,7.863407600000000457e+02
4.520000000000000000e+02,7.867873499999999467e+02
4.530000000000000000e+02,7.872304699999999684e+02
4.540000000000000000e+02,7.876700399999999718e+02
4.550000000000000000e+02,7.881060800000000199e+02
4.560000000000000000e+02,7.885387600000000248e+02
4.570000000000000000e+02,7.889680200000000241e+02
4.580000000000000000e+02,7.893938600000000179e+02
4.590000000000000000e+02,7.898163500000000568e+02
4.600000000000000000e+02,7.902355300000000398e+02
4.610000000000000000e+02,7.906513700000000426e+02
4.620000000000000000e+02,7.910638999999999896e+02
4.630000000000000000e+02,7.914732699999999568e+02
4.640000000000000000e+02,7.918793299999999817e+02
4.650000000000000000e+02,7.922822300000000268e+02
4.660000000000000000e+02,7.926820099999999911e+02
4.670000000000000000e+02,7.930785499999999502e+02
4.680000000000000000e+02,7.934720499999999674e+02
4.690000000000000000e+02,7.938623700000000554e+02
4.700000000000000000e+02,7.942496300000000247e+02
4.710000000000000000e+02,7.946338500000000522e+02
4.720000000000000000e+02,7.950150099999999611e+02
4.730000000000000000e+02,7.953931900000000041e+02
4.740000000000000000e+02,7.957683700000000044e+02
4.750000000000000000e+02,7.961405600000000504e+02
4.760000000000000000e+02,7.965098299999999654e+02
4.770000000000000000e+02,7.968761600000000271e+02
4.780000000000000000e+02,7.972396199999999453e+02
4.790000000000000000e+02,7.976002200000000357e+02
4.800000000000000000e+02,7.979578900000000203e+02
4.810000000000000000e+02,7.983128100000000131e+02
4.820000000000000000e+02,7.986649200000000519e+02
4.830000000000000000e+02,7.990142200000000230e+02
4.840000000000000000e+02,7.993607799999999770e+02
4.850000000000000000e+02,7.997045900000000529e+02
4.860000000000000000e+02,8.000457199999999602e+02
4.870000000000000000e+02,8.003840900000000147e+02
4.880000000000000000e+02,8.007197899999999890e+02
4.890000000000000000e+02,8.010528600000000097e+02
4.900000000000000000e+02,8.013832999999999629e+02
4.910000000000000000e+02,8.017111200000000508e+02
4.920000000000000000e+02,8.020363200000000461e+02
4.930000000000000000e+02,8.023590100000000120e+02
4.940000000000000000e+02,8.026790200000000368e+02
4.950000000000000000e+02,8.029965799999999945e+02
4.960000000000000000e+02,8.033116499999999860e+02
4.970000000000000000e+02,8.036242099999999482e+02
4.980000000000000000e+02,8.039342699999999695e+02
4.990000000000000000e+02,8.042418800000000374e+02
5.000000000000000000e+02,8.045470599999999877e+02
5.010000000000000000e+02,8.048498499999999467e+02
5.020000000000000000e+02,8.051502699999999777e+02
5.030000000000000000e+02,8.054481799999999794e+02
5.040000000000000000e+02,8.057438399999999774e+02
5.050000000000000000e+02,8.060371699999999464e+02
5.060000000000000000e+02,8.063281200000000126e+02
5.070000000000000000e+02,8.066167599999999993e+02
5.080000000000000000e+02,8.069031400000000076e+02
5.090000000000000000e+02,8.071872600000000375e+02
5.100000000000000000e+02,8.074691199999999753e+02
5.110000000000000000e+02,8.077487200000000485e+02
5.120000000000000000e+02,8.080261199999999917e+02
5.130000000000000000e+02,8.083012700000000450e+02
5.140000000000000000e+02,8.085743400000000065e+02
5.150000000000000000e+02,8.088451499999999896e+02
5.160000000000000000e+02,8.091138899999999694e+02
5.170000000000000000e+02,8.093804300000000467e+02
5.180000000000000000e+02,8.096449000000000069e+02
5.190000000000000000e+02,8.099072899999999890e+02
5.200000000000000000e+02,8.101675400000000309e+02
5.210000000000000000e+02,8.104257800000000316e+02
5.220000000000000000e+02,8.106818799999999783e+02
5.230000000000000000e+02,8.109360400000000482e+02
5.240000000000000000e+02,8.111881700000000137e+02
5.250000000000000000e+02,8.114382900000000518e+02
5.260000000000000000e+02,8.116864000000000487e+02
5.270000000000000000e+02,8.119325599999999667e+02
5.280000000000000000e+02,8.121767599999999447e+02
5.290000000000000000e+02,8.124190700000000334e+02
5.300000000000000000e+02,8.126593599999999924e+02
5.310000000000000000e+02,8.128978299999999990e+02
5.320000000000000000e+02,8.131344000000000278e+02
5.330000000000000000e+02,8.133690199999999777e+02
5.340000000000000000e+02,8.136018100000000004e+02
5.350000000000000000e+02,8.138327600000000075e+02
5.360000000000000000e+02,8.140618899999999485e+02
5.370000000000000000e+02,8.142891799999999876e+02
5.380000000000000000e+02,8.145146499999999605e+02
5.390000000000000000e+02,8.147383999999999560e+02
5.400000000000000000e+02,8.149602700000000368e+02
5.410000000000000000e+02,8.151804799999999886e+02
5.420000000000000000e+02,8.153988600000000133e+02
5.430000000000000000e+02,8.156155400000000100e+02
5.440000000000000000e+02,8.158304399999999532e+02
5.450000000000000000e+02,8.160436999999999443e+02
5.460000000000000000e+02,8.162552500000000464e+02
5.470000000000000000e+02,8.164650900000000320e+02
5.480000000000000000e+02,8.166732799999999770e+02
5.490000000000000000e+02,8.168798199999999952e+02
5.500000000000000000e+02,8.170847199999999475e+02
5.510000000000000000e+02,8.172880199999999604e+02
5.520000000000000000e+02,8.174896199999999453e+02
5.530000000000000000e+02,8.176897000000000162e+02
5.540000000000000000e+02,8.178881800000000339e+02
5.550000000000000000e+02,8.180850199999999859e+02
5.560000000000000000e+02,8.182803999999999860e+02
5.570000000000000000e+02,8.184741199999999708e+02
5.580000000000000000e+02,8.186663200000000415e+02
5.590000000000000000e+02,8.188570600000000468e+02
5.600000000000000000e+02,8.190461999999999989e+02
5.610000000000000000e+02,8.192338899999999740e+02
5.620000000000000000e+02,8.194200399999999718e+02
5.630000000000000000e+02,8.196047399999999925e+02
5.640000000000000000e+02,8.197879599999999982e+02
5.650000000000000000e+02,8.199697300000000268e+02
5.660000000000000000e+02,8.201500200000000405e+02
5.670000000000000000e+02,8.203289200000000392e+02
5.680000000000000000e+02,8.205063499999999976e+02
5.690000000000000000e+02,8.206824299999999539e+02
5.700000000000000000e+02,8.208570600000000468e+02
5.710000000000000000e+02,8.210303300000000490e+02
5.720000000000000000e+02,8.212022100000000364e+02
5.730000000000000000e+02,8.213726799999999457e+02
5.740000000000000000e+02,8.215418100000000550e+02
5.750000000000000000e+02,8.217096599999999853e+02
5.760000000000000000e+02,8.218760999999999513e+02
5.770000000000000000e+02,8.220412000000000035e+02
5.780000000000000000e+02,8.222050199999999904e+02
5.790000000000000000e+02,8.223675500000000511e+02
5.800000000000000000e+02,8.225288100000000213e+02
5.810000000000000000e+02,8.226887199999999893e+02
5.820000000000000000e+02,8.228473500000000058e+02
5.830000000000000000e+02,8.230047600000000330e+02
5.840000000000000000e+02,8.231609499999999571e+02
5.850000000000000000e+02,8.233157999999999674e+02
5.860000000000000000e+02,8.234694799999999759e+02
5.870000000000000000e+02,8.236219499999999698e+02
5.880000000000000000e+02,8.237731300000000374e+02
5.890000000000000000e+02,8.239232200000000148e+02
5.900000000000000000e+02,8.240720199999999522e+02
5.910000000000000000e+02,8.242196699999999510e+02
5.920000000000000000e+02,8.243660899999999856e+02
5.930000000000000000e+02,8.245114099999999553e+02
5.940000000000000000e+02,8.246555200000000241e+02
5.950000000000000000e+02,8.247985200000000532e+02
5.960000000000000000e+02,8.249403700000000299e+02
5.970000000000000000e+02,8.250811200000000554e+02
5.980000000000000000e+02,8.252206999999999653e+02
5.990000000000000000e+02,8.253591900000000123e+02