# Time [s], Mass [Kg]
1.000000000000000000e+00,1.000000000000000000e+00
2.000000000000000000e+00,1.000000000000000000e+00
3.000000000000000000e+00,1.000000000000000000e+00
4.000000000000000000e+00,1.000000000000000000e+00
5.000000000000000000e+00,1.000000000000000000e+00
6.000000000000000000e+00,1.000000000000000000e+00
7.000000000000000000e+00,9.999999400000000316e-01
8.000000000000000000e+00,9.999996399999999674e-01
9.000000000000000000e+00,9.999983300000000463e-01
1.000000000000000000e+01,9.999934999999999796e-01
1.100000000000000000e+01,9.999786000000000508e-01
1.200000000000000000e+01,9.999400400000000300e-01
1.300000000000000000e+01,9.998536099999999482e-01
1.400000000000000000e+01,9.996802799999999767e-01
1.500000000000000000e+01,9.993640799999999880e-01
1.600000000000000000e+01,9.988375900000000529e-01
1.700000000000000000e+01,9.980364999999999931e-01
1.800000000000000000e+01,9.969230300000000433e-01
1.900000000000000000e+01,9.955039599999999655e-01
2.000000000000000000e+01,9.938344399999999856e-01
2.100000000000000000e+01,9.920058800000000065e-01
2.200000000000000000e+01,9.901268500000000028e-01
2.300000000000000000e+01,9.883202300000000218e-01
2.400000000000000000e+01,9.867082799999999931e-01
2.500000000000000000e+01,9.853842900000000515e-01
2.600000000000000000e+01,9.843518700000000177e-01
2.700000000000000000e+01,9.834333100000000050e-01
2.800000000000000000e+01,9.822801399999999683e-01
2.900000000000000000e+01,9.808902099999999846e-01
3.000000000000000000e+01,9.793375699999999906e-01
3.100000000000000000e+01,9.776960000000000095e-01
3.200000000000000000e+01,9.760472799999999616e-01
3.300000000000000000e+01,9.744641200000000447e-01
3.400000000000000000e+01,9.730114300000000105e-01
3.500000000000000000e+01,9.717294600000000449e-01
3.600000000000000000e+01,9.706186700000000167e-01
3.700000000000000000e+01,9.696183200000000335e-01
3.800000000000000000e+01,9.686132699999999707e-01
3.900000000000000000e+01,9.674898400000000454e-01
4.000000000000000000e+01,9.662309900000000118e-01
4.100000000000000000e+01,9.648763500000000493e-01
4.200000000000000000e+01,9.634707000000000132e-01
4.300000000000000000e+01,9.620589600000000186e-01
4.400000000000000000e+01,9.606831099999999513e-01
4.500000000000000000e+01,9.593784800000000335e-01
4.600000000000000000e+01,9.581685100000000288e-01
4.700000000000000000e+01,9.570591999999999988e-01
4.800000000000000000e+01,9.560337700000000050e-01
4.900000000000000000e+01,9.550509499999999541e-01
5.000000000000000000e+01,9.540564400000000056e-01
5.100000000000000000e+01,9.530051899999999465e-01
5.200000000000000000e+01,9.518808699999999900e-01
5.300000000000000000e+01,9.506955700000000453e-01
5.400000000000000000e+01,9.494739800000000507e-01
5.500000000000000000e+01,9.482416500000000470e-01
5.600000000000000000e+01,9.470226800000000056e-01
5.700000000000000000e+01,9.458377999999999508e-01
5.800000000000000000e+01,9.447022099999999867e-01
5.900000000000000000e+01,9.436240200000000078e-01
6.000000000000000000e+01,9.426013199999999648e-01
6.100000000000000000e+01,9.416220199999999485e-01
6.200000000000000000e+01,9.406640499999999738e-01
6.300000000000000000e+01,9.397017399999999521e-01
6.400000000000000000e+01,9.387121800000000071e-01
6.500000000000000000e+01,9.376831100000000419e-01
6.600000000000000000e+01,9.366148100000000198e-01
6.700000000000000000e+01,9.355174899999999516e-01
6.800000000000000000e+01,9.344054499999999708e-01
6.900000000000000000e+01,9.332930999999999866e-01
7.000000000000000000e+01,9.321938800000000303e-01
7.100000000000000000e+01,9.311183100000000046e-01
7.200000000000000000e+01,9.300732600000000128e-01
7.300000000000000000e+01,9.290613500000000080e-01
7.400000000000000000e+01,9.280798399999999893e-01
7.500000000000000000e+01,9.271209200000000150e-01
7.600000000000000000e+01,9.261725499999999833e-01
7.700000000000000000e+01,9.252209700000000314e-01
7.800000000000000000e+01,9.242537600000000353e-01
7.900000000000000000e+01,9.232627199999999812e-01
8.000000000000000000e+01,9.222458000000000045e-01
8.100000000000000000e+01,9.212065299999999679e-01
8.200000000000000000e+01,9.201521900000000365e-01
8.300000000000000000e+01,9.190917600000000354e-01
8.400000000000000000e+01,9.180339600000000377e-01
8.500000000000000000e+01,9.169861099999999654e-01
8.600000000000000000e+01,9.159535800000000449e-01
8.700000000000000000e+01,9.149388699999999597e-01
8.800000000000000000e+01,9.139415600000000417e-01
8.900000000000000000e+01,9.129585000000000061e-01
9.000000000000000000e+01,9.119833699999999599e-01
9.100000000000000000e+01,9.110083599999999615e-01
9.200000000000000000e+01,9.100254199999999738e-01
9.300000000000000000e+01,9.090276999999999941e-01
9.400000000000000000e+01,9.080112000000000183e-01
9.500000000000000000e+01,9.069752700000000001e-01
9.600000000000000000e+01,9.059224700000000352e-01
9.700000000000000000e+01,9.048577500000000162e-01
9.800000000000000000e+01,9.037870799999999649e-01
9.900000000000000000e+01,9.027159200000000050e-01
1.000000000000000000e+02,9.016488799999999859e-01
1.010000000000000000e+02,9.005888699999999858e-01
1.020000000000000000e+02,8.995368500000000545e-01
1.030000000000000000e+02,8.984917399999999832e-01
1.040000000000000000e+02,8.974503299999999628e-01
1.050000000000000000e+02,8.964079000000000352e-01
1.060000000000000000e+02,8.953592200000000112e-01
1.070000000000000000e+02,8.942989700000000264e-01
1.080000000000000000e+02,8.932233499999999715e-01
1.090000000000000000e+02,8.921303699999999504e-01
1.100000000000000000e+02,8.910204200000000352e-01
1.110000000000000000e+02,8.898958599999999830e-01
1.120000000000000000e+02,8.887601499999999710e-01
1.130000000000000000e+02,8.876173499999999716e-01
1.140000000000000000e+02,8.864709699999999692e-01
1.150000000000000000e+02,8.853234599999999510e-01
1.160000000000000000e+02,8.841759000000000146e-01
1.170000000000000000e+02,8.830274900000000260e-01
1.180000000000000000e+02,8.818762300000000387e-01
1.190000000000000000e+02,8.807188900000000320e-01
1.200000000000000000e+02,8.795515299999999703e-01
1.210000000000000000e+02,8.783703999999999956e-01
1.220000000000000000e+02,8.771727099999999666e-01
1.230000000000000000e+02,8.759567700000000512e-01
1.240000000000000000e+02,8.747226599999999852e-01
1.250000000000000000e+02,8.734718599999999888e-01
1.260000000000000000e+02,8.722066299999999828e-01
1.270000000000000000e+02,8.709294800000000336e-01
1.280000000000000000e+02,8.696424999999999850e-01
1.290000000000000000e+02,8.683468100000000245e-01
1.300000000000000000e+02,8.670423600000000119e-01
1.310000000000000000e+02,8.657278400000000262e-01
1.320000000000000000e+02,8.644009799999999855e-01
1.330000000000000000e+02,8.630588700000000335e-01
1.340000000000000000e+02,8.616985099999999731e-01
1.350000000000000000e+02,8.603175299999999970e-01
1.360000000000000000e+02,8.589141999999999610e-01
1.370000000000000000e+02,8.574881600000000548e-01
1.380000000000000000e+02,8.560400000000000231e-01
1.390000000000000000e+02,8.545709799999999801e-01
1.400000000000000000e+02,8.530824200000000079e-01
1.410000000000000000e+02,8.515754899999999905e-01
1.420000000000000000e+02,8.500504500000000130e-01
1.430000000000000000e+02,8.485066900000000079e-01
1.440000000000000000e+02,8.469429600000000224e-01
1.450000000000000000e+02,8.453572400000000098e-01
1.460000000000000000e+02,8.437474999999999836e-01
1.470000000000000000e+02,8.421118300000000056e-01
1.480000000000000000e+02,8.404492099999999466e-01
1.490000000000000000e+02,8.387592400000000170e-01
1.500000000000000000e+02,8.370425700000000413e-01
1.510000000000000000e+02,8.353003300000000353e-01
1.520000000000000000e+02,8.335338799999999493e-01
1.530000000000000000e+02,8.317444299999999791e-01
1.540000000000000000e+02,8.299329899999999816e-01
1.550000000000000000e+02,8.280997900000000023e-01
1.560000000000000000e+02,8.262447699999999617e-01
1.570000000000000000e+02,8.243677600000000050e-01
1.580000000000000000e+02,8.224688199999999894e-01
1.590000000000000000e+02,8.205482400000000398e-01
1.600000000000000000e+02,8.186071499999999501e-01
1.610000000000000000e+02,8.166472299999999462e-01
1.620000000000000000e+02,8.146705600000000436e-01
1.630000000000000000e+02,8.126797100000000551e-01
1.640000000000000000e+02,8.106769299999999623e-01
1.650000000000000000e+02,8.086643799999999604e-01
1.660000000000000000e+02,8.066439600000000487e-01
1.670000000000000000e+02,8.046171699999999927e-01
1.680000000000000000e+02,8.025853600000000254e-01
1.690000000000000000e+02,8.005500399999999628e-01
1.700000000000000000e+02,7.985130000000000283e-01
1.710000000000000000e+02,7.964761299999999489e-01
1.720000000000000000e+02,7.944417000000000284e-01
1.730000000000000000e+02,7.924120999999999526e-01
1.740000000000000000e+02,7.903894799999999776e-01
1.750000000000000000e+02,7.883760300000000054e-01
1.760000000000000000e+02,7.863735600000000270e-01
1.770000000000000000e+02,7.843834800000000218e-01
1.780000000000000000e+02,7.824072800000000383e-01
1.790000000000000000e+02,7.804462300000000186e-01
1.800000000000000000e+02,7.785016299999999445e-01
1.810000000000000000e+02,7.765750300000000550e-01
1.820000000000000000e+02,7.746679800000000338e-01
1.830000000000000000e+02,7.727819099999999608e-01
1.840000000000000000e+02,7.709184900000000118e-01
1.850000000000000000e+02,7.690791500000000447e-01
1.860000000000000000e+02,7.672651999999999806e-01
1.870000000000000000e+02,7.654779000000000444e-01
1.880000000000000000e+02,7.637183100000000113e-01
1.890000000000000000e+02,7.619877499999999637e-01
1.900000000000000000e+02,7.602875199999999944e-01
1.910000000000000000e+02,7.586191300000000304e-01
1.920000000000000000e+02,7.569841699999999562e-01
1.930000000000000000e+02,7.553843900000000167e-01
1.940000000000000000e+02,7.538214300000000145e-01
1.950000000000000000e+02,7.522972199999999887e-01
1.960000000000000000e+02,7.508135999999999699e-01
1.970000000000000000e+02,7.493726000000000553e-01
1.980000000000000000e+02,7.479764199999999752e-01
1.990000000000000000e+02,7.466274499999999703e-01
2.000000000000000000e+02,7.453284300000000417e-01
2.010000000000000000e+02,7.440821499999999977e-01
2.020000000000000000e+02,7.428917900000000518e-01
2.030000000000000000e+02,7.417606700000000108e-01
2.040000000000000000e+02,7.406923199999999596e-01
2.050000000000000000e+02,7.396904800000000391e-01
2.060000000000000000e+02,7.387590400000000335e-01
2.070000000000000000e+02,7.379020499999999760e-01
2.080000000000000000e+02,7.371233099999999760e-01
2.090000000000000000e+02,7.364268299999999767e-01
2.100000000000000000e+02,7.358156399999999930e-01
2.110000000000000000e+02,7.352922600000000308e-01
2.120000000000000000e+02,7.348575000000000523e-01
2.130000000000000000e+02,7.345101200000000441e-01
2.140000000000000000e+02,7.342462499999999892e-01
2.150000000000000000e+02,7.340584399999999787e-01
2.160000000000000000e+02,7.339357699999999873e-01
2.170000000000000000e+02,7.338642499999999957e-01
2.180000000000000000e+02,7.338284900000000555e-01
2.190000000000000000e+02,7.338139399999999979e-01
2.200000000000000000e+02,7.338095900000000116e-01
2.210000000000000000e+02,7.338087599999999489e-01
2.220000000000000000e+02,7.338086999999999804e-01
2.230000000000000000e+02,7.338086999999999804e-01
2.240000000000000000e+02,7.338086999999999804e-01
2.250000000000000000e+02,7.338086999999999804e-01
2.260000000000000000e+02,7.338086999999999804e-01
2.270000000000000000e+02,7.338086999999999804e-01
2.280000000000000000e+02,7.338086999999999804e-01
2.290000000000000000e+02,7.338086999999999804e-01
2.300000000000000000e+02,7.338086999999999804e-01
2.310000000000000000e+02,7.338086999999999804e-01
2.320000000000000000e+02,7.338086999999999804e-01
2.330000000000000000e+02,7.338086999999999804e-01
2.340000000000000000e+02,7.338086999999999804e-01
2.350000000000000000e+02,7.338086999999999804e-01
2.360000000000000000e+02,7.338086999999999804e-01
2.370000000000000000e+02,7.338086999999999804e-01
2.380000000000000000e+02,7.338086999999999804e-01
2.390000000000000000e+02,7.338086999999999804e-01
2.400000000000000000e+02,7.338086999999999804e-01
2.410000000000000000e+02,7.338086999999999804e-01
2.420000000000000000e+02,7.338086999999999804e-01
2.430000000000000000e+02,7.338086999999999804e-01
2.440000000000000000e+02,7.338086999999999804e-01
2.450000000000000000e+02,7.338086999999999804e-01
2.460000000000000000e+02,7.338086999999999804e-01
2.470000000000000000e+02,7.338086999999999804e-01
2.480000000000000000e+02,7.338086999999999804e-01
2.490000000000000000e+02,7.338086999999999804e-01
2.500000000000000000e+02,7.338086999999999804e-01
2.510000000000000000e+02,7.338086999999999804e-01
2.520000000000000000e+02,7.338086999999999804e-01
2.530000000000000000e+02,7.338086999999999804e-01
2.540000000000000000e+02,7.338086999999999804e-01
2.550000000000000000e+02,7.338086999999999804e-01
2.560000000000000000e+02,7.338086999999999804e-01
2.570000000000000000e+02,7.338086999999999804e-01
2.580000000000000000e+02,7.338086999999999804e-01
2.590000000000000000e+02,7.338086999999999804e-01
2.600000000000000000e+02,7.338086999999999804e-01
2.610000000000000000e+02,7.338086999999999804e-01
2.620000000000000000e+02,7.338086999999999804e-01
2.630000000000000000e+02,7.338086999999999804e-01
2.640000000000000000e+02,7.338086999999999804e-01
2.650000000000000000e+02,7.338086999999999804e-01
2.660000000000000000e+02,7.338086999999999804e-01
2.670000000000000000e+02,7.338086999999999804e-01
2.680000000000000000e+02,7.338086999999999804e-01
2.690000000000000000e+02,7.338086999999999804e-01
2.700000000000000000e+02,7.338086999999999804e-01
2.710000000000000000e+02,7.338086999999999804e-01
2.720000000000000000e+02,7.338086999999999804e-01
2.730000000000000000e+02,7.338086999999999804e-01
2.740000000000000000e+02,7.338086999999999804e-01
2.750000000000000000e+02,7.338086999999999804e-01
2.760000000000000000e+02,7.338086999999999804e-01
2.770000000000000000e+02,7.338086999999999804e-01
2.780000000000000000e+02,7.338086999999999804e-01
2.790000000000000000e+02,7.338086999999999804e-01
2.800000000000000000e+02,7.338086999999999804e-01
2.810000000000000000e+02,7.338086999999999804e-01
2.820000000000000000e+02,7.338086999999999804e-01
2.830000000000000000e+02,7.338086999999999804e-01
2.840000000000000000e+02,7.338086999999999804e-01
2.850000000000000000e+02,7.338086999999999804e-01
2.860000000000000000e+02,7.338086999999999804e-01
2.870000000000000000e+02,7.338086999999999804e-01
2.880000000000000000e+02,7.338086999999999804e-01
2.890000000000000000e+02,7.338086999999999804e-01
2.900000000000000000e+02,7.338086999999999804e-01
2.910000000000000000e+02,7.338086999999999804e-01
2.920000000000000000e+02,7.338086999999999804e-01
2.930000000000000000e+02,7.338086999999999804e-01
2.940000000000000000e+02,7.338086999999999804e-01
2.950000000000000000e+02,7.338086999999999804e-01
2.960000000000000000e+02,7.338086999999999804e-01
2.970000000000000000e+02,7.338086999999999804e-01
2.980000000000000000e+02,7.338086999999999804e-01
2.990000000000000000e+02,7.338086999999999804e-01
3.000000000000000000e+02,7.338086999999999804e-01
3.010000000000000000e+02,7.338086999999999804e-01
3.020000000000000000e+02,7.338086999999999804e-01
3.030000000000000000e+02,7.338086999999999804e-01
3.040000000000000000e+02,7.338086999999999804e-01
3.050000000000000000e+02,7.338086999999999804e-01
3.060000000000000000e+02,7.338086999999999804e-01
3.070000000000000000e+02,7.338086999999999804e-01
3.080000000000000000e+02,7.338086999999999804e-01
3.090000000000000000e+02,7.338086999999999804e-01
3.100000000000000000e+02,7.338086999999999804e-01
3.110000000000000000e+02,7.338086999999999804e-01
3.120000000000000000e+02,7.338086999999999804e-01
3.130000000000000000e+02,7.338086999999999804e-01
3.140000000000000000e+02,7.338086999999999804e-01
3.150000000000000000e+02,7.338086999999999804e-01
3.160000000000000000e+02,7.338086999999999804e-01
3.170000000000000000e+02,7.338086999999999804e-01
3.180000000000000000e+02,7.338086999999999804e-01
3.190000000000000000e+02,7.338086999999999804e-01
3.200000000000000000e+02,7.338086999999999804e-01
3.210000000000000000e+02,7.338086999999999804e-01
3.220000000000000000e+02,7.338086999999999804e-01
3.230000000000000000e+02,7.338086999999999804e-01
3.240000000000000000e+02,7.338086999999999804e-01
3.250000000000000000e+02,7.338086999999999804e-01
3.260000000000000000e+02,7.338086999999999804e-01
3.270000000000000000e+02,7.338086999999999804e-01
3.280000000000000000e+02,7.338086999999999804e-01
3.290000000000000000e+02,7.338086999999999804e-01
3.300000000000000000e+02,7.338086999999999804e-01
3.310000000000000000e+02,7.338086999999999804e-01
3.320000000000000000e+02,7.338086999999999804e-01
3.330000000000000000e+02,7.338086999999999804e-01
3.340000000000000000e+02,7.338086999999999804e-01
3.350000000000000000e+02,7.338086999999999804e-01
3.360000000000000000e+02,7.338086999999999804e-01
3.370000000000000000e+02,7.338086999999999804e-01
3.380000000000000000e+02,7.338086999999999804e-01
3.390000000000000000e+02,7.338086999999999804e-01
3.400000000000000000e+02,7.338086999999999804e-01
3.410000000000000000e+02,7.338086999999999804e-01
3.420000000000000000e+02,7.338086999999999804e-01
3.430000000000000000e+02,7.338086999999999804e-01
3.440000000000000000e+02,7.338086999999999804e-01
3.450000000000000000e+02,7.338086999999999804e-01
3.460000000000000000e+02,7.338086999999999804e-01
3.470000000000000000e+02,7.338086999999999804e-01
3.480000000000000000e+02,7.338086999999999804e-01
3.490000000000000000e+02,7.338086999999999804e-01
3.500000000000000000e+02,7.338086999999999804e-01
3.510000000000000000e+02,7.338086999999999804e-01
3.520000000000000000e+02,7.338086999999999804e-01
3.530000000000000000e+02,7.338086999999999804e-01
3.540000000000000000e+02,7.338086999999999804e-01
3.550000000000000000e+02,7.338086999999999804e-01
3.560000000000000000e+02,7.338086999999999804e-01
3.570000000000000000e+02,7.338086999999999804e-01
3.580000000000000000e+02,7.338086999999999804e-01
3.590000000000000000e+02,7.338086999999999804e-01
3.600000000000000000e+02,7.338086999999999804e-01
3.610000000000000000e+02,7.338086999999999804e-01
3.620000000000000000e+02,7.338086999999999804e-01
3.630000000000000000e+02,7.338086999999999804e-01
3.640000000000000000e+02,7.338086999999999804e-01
3.650000000000000000e+02,7.338086999999999804e-01
3.660000000000000000e+02,7.338086999999999804e-01
3.670000000000000000e+02,7.338086999999999804e-01
3.680000000000000000e+02,7.338086999999999804e-01
3.690000000000000000e+02,7.338086999999999804e-01
3.700000000000000000e+02,7.338086999999999804e-01
3.710000000000000000e+02,7.338086999999999804e-01
3.720000000000000000e+02,7.338086999999999804e-01
3.730000000000000000e+02,7.338086999999999804e-01
3.740000000000000000e+02,7.338086999999999804e-01
3.750000000000000000e+02,7.338086999999999804e-01
3.760000000000000000e+02,7.338086999999999804e-01
3.770000000000000000e+02,7.338086999999999804e-01
3.780000000000000000e+02,7.338086999999999804e-01
3.790000000000000000e+02,7.338086999999999804e-01
3.800000000000000000e+02,7.338086999999999804e-01
3.810000000000000000e+02,7.338086999999999804e-01
3.820000000000000000e+02,7.338086999999999804e-01
3.830000000000000000e+02,7.338086999999999804e-01
3.840000000000000000e+02,7.338086999999999804e-01
3.850000000000000000e+02,7.338086999999999804e-01
3.860000000000000000e+02,7.338086999999999804e-01
3.870000000000000000e+02,7.338086999999999804e-01
3.880000000000000000e+02,7.338086999999999804e-01
3.890000000000000000e+02,7.338086999999999804e-01
3.900000000000000000e+02,7.338086999999999804e-01
3.910000000000000000e+02,7.338086999999999804e-01
3.920000000000000000e+02,7.338086999999999804e-01
3.930000000000000000e+02,7.338086999999999804e-01
3.940000000000000000e+02,7.338086999999999804e-01
3.950000000000000000e+02,7.338086999999999804e-01
3.960000000000000000e+02,7.338086999999999804e-01
3.970000000000000000e+02,7.338086999999999804e-01
3.980000000000000000e+02,7.338086999999999804e-01
3.990000000000000000e+02,7.338086999999999804e-01
4.000000000000000000e+02,7.338086999999999804e-01
4.010000000000000000e+02,7.338086999999999804e-01
4.020000000000000000e+02,7.338086999999999804e-01
4.030000000000000000e+02,7.338086999999999804e-01
4.040000000000000000e+02,7.338086999999999804e-01
4.050000000000000000e+02,7.338086999999999804e-01
4.060000000000000000e+02,7.338086999999999804e-01
4.070000000000000000e+02,7.338086999999999804e-01
4.080000000000000000e+02,7.338086999999999804e-01
4.090000000000000000e+02,7.338086999999999804e-01
4.100000000000000000e+02,7.338086999999999804e-01
4.110000000000000000e+02,7.338086999999999804e-01
4.120000000000000000e+02,7.338086999999999804e-01
4.130000000000000000e+02,7.338086999999999804e-01
4.140000000000000000e+02,7.338086999999999804e-01
4.150000000000000000e+02,7.338086999999999804e-01
4.160000000000000000e+02,7.338086999999999804e-01
4.170000000000000000e+02,7.338086999999999804e-01
4.180000000000000000e+02,7.338086999999999804e-01
4.190000000000000000e+02,7.338086999999999804e-01
4.200000000000000000e+02,7.338086999999999804e-01
4.210000000000000000e+02,7.338086999999999804e-01
4.220000000000000000e+02,7.338086999999999804e-01
4.230000000000000000e+02,7.338086999999999804e-01
4.240000000000000000e+02,7.338086999999999804e-01
4.250000000000000000e+02,7.338086999999999804e-01
4.260000000000000000e+02,7.338086999999999804e-01
4.270000000000000000e+02,7.338086999999999804e-01
4.280000000000000000e+02,7.338086999999999804e-01
4.290000000000000000e+02,7.338086999999999804e-01
4.300000000000000000e+02,7.338086999999999804e-01
4.310000000000000000e+02,7.338086999999999804e-01
4.320000000000000000e+02,7.338086999999999804e-01
4.330000000000000000e+02,7.338086999999999804e-01
4.340000000000000000e+02,7.338086999999999804e-01
4.350000000000000000e+02,7.338086999999999804e-01
4.360000000000000000e+02,7.338086999999999804e-01
4.370000000000000000e+02,7.338086999999999804e-01
4.380000000000000000e+02,7.338086999999999804e-01
4.390000000000000000e+02,7.338086999999999804e-01
4.400000000000000000e+02,7.338086999999999804e-01
4.410000000000000000e+02,7.338086999999999804e-01
4.420000000000000000e+02,7.338086999999999804e-01
4.430000000000000000e+02,7.338086999999999804e-01
4.440000000000000000e+02,7.338086999999999804e-01
4.450000000000000000e+02,7.338086999999999804e-01
4.460000000000000000e+02,7.338086999999999804e-01
4.470000000000000000e+02,7.338086999999999804e-01
4.480000000000000000e+02,7.338086999999999804e-01
4.490000000000000000e+02,7.338086999999999804e-01
4.500000000000000000e+02,7.338086999999999804e-01
4.510000000000000000e+02,7.338086999999999804e-01
4.520000000000000000e+02,7.338086999999999804e-01
4.530000000000000000e+02,7.338086999999999804e-01
4.540000000000000000e+02,7.338086999999999804e-01
4.550000000000000000e+02,7.338086999999999804e-01
4.560000000000000000e+02,7.338086999999999804e-01
4.570000000000000000e+02,7.338086999999999804e-01
4.580000000000000000e+02,7.338086999999999804e-01
4.590000000000000000e+02,7.338086999999999804e-01
4.600000000000000000e+02,7.338086999999999804e-01
4.610000000000000000e+02,7.338086999999999804e-01
4.620000000000000000e+02,7.338086999999999804e-01
4.630000000000000000e+02,7.338086999999999804e-01
4.640000000000000000e+02,7.338086999999999804e-01
4.650000000000000000e+02,7.338086999999999804e-01
4.660000000000000000e+02,7.338086999999999804e-01
4.670000000000000000e+02,7.338086999999999804e-01
4.680000000000000000e+02,7.338086999999999804e-01
4.690000000000000000e+02,7.338086999999999804e-01
4.700000000000000000e+02,7.338086999999999804e-01
4.710000000000000000e+02,7.338086999999999804e-01
4.720000000000000000e+02,7.338086999999999804e-01
4.730000000000000000e+02,7.338086999999999804e-01
4.740000000000000000e+02,7.338086999999999804e-01
4.750000000000000000e+02,7.338086999999999804e-01
4.760000000000000000e+02,7.338086999999999804e-01
4.770000000000000000e+02,7.338086999999999804e-01
4.780000000000000000e+02,7.338086999999999804e-01
4.790000000000000000e+02,7.338086999999999804e-01
4.800000000000000000e+02,7.338086999999999804e-01
4.810000000000000000e+02,7.338086999999999804e-01
4.820000000000000000e+02,7.338086999999999804e-01
4.830000000000000000e+02,7.338086999999999804e-01
4.840000000000000000e+02,7.338086999999999804e-01
4.850000000000000000e+02,7.338086999999999804e-01
4.860000000000000000e+02,7.338086999999999804e-01
4.870000000000000000e+02,7.338086999999999804e-01
4.880000000000000000e+02,7.338086999999999804e-01
4.890000000000000000e+02,7.338086999999999804e-01
4.900000000000000000e+02,7.338086999999999804e-01
4.910000000000000000e+02,7.338086999999999804e-01
4.920000000000000000e+02,7.338086999999999804e-01
4.930000000000000000e+02,7.338086999999999804e-01
4.940000000000000000e+02,7.338086999999999804e-01
4.950000000000000000e+02,7.338086999999999804e-01
4.960000000000000000e+02,7.338086999999999804e-01
4.970000000000000000e+02,7.338086999999999804e-01
4.980000000000000000e+02,7.338086999999999804e-01
4.990000000000000000e+02,7.338086999999999804e-01
5.000000000000000000e+02,7.338086999999999804e-01
5.010000000000000000e+02,7.338086999999999804e-01
5.020000000000000000e+02,7.338086999999999804e-01
5.030000000000000000e+02,7.338086999999999804e-01
5.040000000000000000e+02,7.338086999999999804e-01
5.050000000000000000e+02,7.338086999999999804e-01
5.060000000000000000e+02,7.338086999999999804e-01
5.070000000000000000e+02,7.338086999999999804e-01
5.080000000000000000e+02,7.338086999999999804e-01
5.090000000000000000e+02,7.338086999999999804e-01
5.100000000000000000e+02,7.338086999999999804e-01
5.110000000000000000e+02,7.338086999999999804e-01
5.120000000000000000e+02,7.338086999999999804e-01
5.130000000000000000e+02,7.338086999999999804e-01
5.140000000000000000e+02,7.338086999999999804e-01
5.150000000000000000e+02,7.338086999999999804e-01
5.160000000000000000e+02,7.338086999999999804e-01
5.170000000000000000e+02,7.338086999999999804e-01
5.180000000000000000e+02,7.338086999999999804e-01
5.190000000000000000e+02,7.338086999999999804e-01
5.200000000000000000e+02,7.338086999999999804e-01
5.210000000000000000e+02,7.338086999999999804e-01
5.220000000000000000e+02,7.338086999999999804e-01
5.230000000000000000e+02,7.338086999999999804e-01
5.240000000000000000e+02,7.338086999999999804e-01
5.250000000000000000e+02,7.338086999999999804e-01
5.260000000000000000e+02,7.338086999999999804e-01
5.270000000000000000e+02,7.338086999999999804e-01
5.280000000000000000e+02,7.338086999999999804e-01
5.290000000000000000e+02,7.338086999999999804e-01
5.300000000000000000e+02,7.338086999999999804e-01
5.310000000000000000e+02,7.338086999999999804e-01
5.320000000000000000e+02,7.338086999999999804e-01
5.330000000000000000e+02,7.338086999999999804e-01
5.340000000000000000e+02,7.338086999999999804e-01
5.350000000000000000e+02,7.338086999999999804e-01
5.360000000000000000e+02,7.338086999999999804e-01
5.370000000000000000e+02,7.338086999999999804e-01
5.380000000000000000e+02,7.338086999999999804e-01
5.390000000000000000e+02,7.338086999999999804e-01
5.400000000000000000e+02,7.338086999999999804e-01
5.410000000000000000e+02,7.338086999999999804e-01
5.420000000000000000e+02,7.338086999999999804e-01
5.430000000000000000e+02,7.338086999999999804e-01
5.440000000000000000e+02,7.338086999999999804e-01
5.450000000000000000e+02,7.338086999999999804e-01
5.460000000000000000e+02,7.338086999999999804e-01
5.470000000000000000e+02,7.338086999999999804e-01
5.480000000000000000e+02,7.338086999999999804e-01
5.490000000000000000e+02,7.338086999999999804e-01
5.500000000000000000e+02,7.338086999999999804e-01
5.510000000000000000e+02,7.338086999999999804e-01
5.520000000000000000e+02,7.338086999999999804e-01
5.530000000000000000e+02,7.338086999999999804e-01
5.540000000000000000e+02,7.338086999999999804e-01
5.550000000000000000e+02,7.338086999999999804e-01
5.560000000000000000e+02,7.338086999999999804e-01
5.570000000000000000e+02,7.338086999999999804e-01
5.580000000000000000e+02,7.338086999999999804e-01
5.590000000000000000e+02,7.338086999999999804e-01
5.600000000000000000e+02,7.338086999999999804e-01
5.610000000000000000e+02,7.338086999999999804e-01
5.620000000000000000e+02,7.338086999999999804e-01
5.630000000000000000e+02,7.338086999999999804e-01
5.640000000000000000e+02,7.338086999999999804e-01
5.650000000000000000e+02,7.338086999999999804e-01
5.660000000000000000e+02,7.338086999999999804e-01
5.670000000000000000e+02,7.338086999999999804e-01
5.680000000000000000e+02,7.338086999999999804e-01
5.690000000000000000e+02,7.338086999999999804e-01
5.700000000000000000e+02,7.338086999999999804e-01
5.710000000000000000e+02,7.338086999999999804e-01
5.720000000000000000e+02,7.338086999999999804e-01
5.730000000000000000e+02,7.338086999999999804e-01
5.740000000000000000e+02,7.338086999999999804e-01
5.750000000000000000e+02,7.338086999999999804e-01
5.760000000000000000e+02,7.338086999999999804e-01
5.770000000000000000e+02,7.338086999999999804e-01
5.780000000000000000e+02,7.338086999999999804e-01
5.790000000000000000e+02,7.338086999999999804e-01
5.800000000000000000e+02,7.338086999999999804e-01
5.810000000000000000e+02,7.338086999999999804e-01
5.820000000000000000e+02,7.338086999999999804e-01
5.830000000000000000e+02,7.338086999999999804e-01
5.840000000000000000e+02,7.338086999999999804e-01
5.850000000000000000e+02,7.338086999999999804e-01
5.860000000000000000e+02,7.338086999999999804e-01
5.870000000000000000e+02,7.338086999999999804e-01
5.880000000000000000e+02,7.338086999999999804e-01
5.890000000000000000e+02,7.338086999999999804e-01
5.900000000000000000e+02,7.338086999999999804e-01
5.910000000000000000e+02,7.338086999999999804e-01
5.920000000000000000e+02,7.338086999999999804e-01
5.930000000000000000e+02,7.338086999999999804e-01
5.940000000000000000e+02,7.338086999999999804e-01
5.950000000000000000e+02,7.338086999999999804e-01
5.960000000000000000e+02,7.338086999999999804e-01
5.970000000000000000e+02,7.338086999999999804e-01
5.980000000000000000e+02,7.338086999999999804e-01
5.990000000000000000e+02,7.338086999999999804e-01