# Time [s], Temperature [C]
1.000000000000000000e+00,2.500000000000000000e+01
2.000000000000000000e+00,2.500000000000000000e+01
3.000000000000000000e+00,2.500000000000000000e+01
4.000000000000000000e+00,2.500000000000000000e+01
5.000000000000000000e+00,2.500000199999999850e+01
6.000000000000000000e+00,2.500001699999999971e+01
7.000000000000000000e+00,2.500007799999999847e+01
8.000000000000000000e+00,2.500029599999999874e+01
9.000000000000000000e+00,2.500092899999999929e+01
1.000000000000000000e+01,2.500252300000000005e+01
1.100000000000000000e+01,2.500606499999999954e+01
1.200000000000000000e+01,2.501313599999999937e+01
1.300000000000000000e+01,2.502602800000000016e+01
1.400000000000000000e+01,2.504781499999999994e+01
1.500000000000000000e+01,2.508233099999999993e+01
1.600000000000000000e+01,2.513409000000000049e+01
1.700000000000000000e+01,2.520816400000000002e+01
1.800000000000000000e+01,2.531003000000000114e+01
1.900000000000000000e+01,2.544541200000000103e+01
2.000000000000000000e+01,2.562010599999999982e+01
2.100000000000000000e+01,2.583987000000000123e+01
2.200000000000000000e+01,2.611027100000000090e+01
2.300000000000000000e+01,2.643658599999999836e+01
2.400000000000000000e+01,2.682374799999999837e+01
2.500000000000000000e+01,2.727623699999999829e+01
2.600000000000000000e+01,2.779809200000000047e+01
2.700000000000000000e+01,2.839287799999999962e+01
2.800000000000000000e+01,2.906355999999999895e+01
2.900000000000000000e+01,2.981244500000000031e+01
3.000000000000000000e+01,3.064153299999999902e+01
3.100000000000000000e+01,3.155222499999999997e+01
3.200000000000000000e+01,3.254523799999999767e+01
3.300000000000000000e+01,3.362110899999999702e+01
3.400000000000000000e+01,3.477986500000000092e+01
3.500000000000000000e+01,3.602100399999999780e+01
3.600000000000000000e+01,3.734378099999999989e+01
3.700000000000000000e+01,3.874737900000000224e+01
3.800000000000000000e+01,4.023048399999999702e+01
3.900000000000000000e+01,4.179177099999999712e+01
4.000000000000000000e+01,4.342952300000000321e+01
4.100000000000000000e+01,4.514237599999999873e+01
4.200000000000000000e+01,4.692805899999999752e+01
4.300000000000000000e+01,4.878478199999999987e+01
4.400000000000000000e+01,5.071046799999999877e+01
4.500000000000000000e+01,5.270282699999999920e+01
4.600000000000000000e+01,5.475976899999999858e+01
4.700000000000000000e+01,5.687902799999999814e+01
4.800000000000000000e+01,5.905831500000000034e+01
4.900000000000000000e+01,6.129577299999999696e+01
5.000000000000000000e+01,6.358893599999999680e+01
5.100000000000000000e+01,6.593575300000000539e+01
5.200000000000000000e+01,6.833383899999999755e+01
5.300000000000000000e+01,7.078097499999999798e+01
5.400000000000000000e+01,7.327510100000000648e+01
5.500000000000000000e+01,7.581408700000000067e+01
5.600000000000000000e+01,7.839614100000000008e+01
5.700000000000000000e+01,8.101870700000000625e+01
5.800000000000000000e+01,8.368015300000000423e+01
5.900000000000000000e+01,8.637810500000000502e+01
6.000000000000000000e+01,8.911064100000000110e+01
6.100000000000000000e+01,9.187622799999999756e+01
6.200000000000000000e+01,9.467314899999999511e+01
6.300000000000000000e+01,9.749957999999999458e+01
6.400000000000000000e+01,1.003536000000000001e+02
6.500000000000000000e+01,1.032337600000000037e+02
6.600000000000000000e+01,1.061382200000000040e+02
6.700000000000000000e+01,1.090653899999999936e+02
6.800000000000000000e+01,1.120139300000000020e+02
6.900000000000000000e+01,1.149818900000000070e+02
7.000000000000000000e+01,1.179679600000000050e+02
7.100000000000000000e+01,1.209711199999999991e+02
7.200000000000000000e+01,1.239896200000000022e+02
7.300000000000000000e+01,1.270225599999999986e+02
7.400000000000000000e+01,1.300684500000000128e+02
7.500000000000000000e+01,1.331257600000000139e+02
7.600000000000000000e+01,1.361939700000000073e+02
7.700000000000000000e+01,1.392716499999999940e+02
7.800000000000000000e+01,1.423576700000000130e+02
7.900000000000000000e+01,1.454509999999999934e+02
8.000000000000000000e+01,1.485505699999999933e+02
8.100000000000000000e+01,1.516551800000000014e+02
8.200000000000000000e+01,1.547639200000000130e+02
8.300000000000000000e+01,1.578759599999999921e+02
8.400000000000000000e+01,1.609903400000000033e+02
8.500000000000000000e+01,1.641062499999999886e+02
8.600000000000000000e+01,1.672228700000000003e+02
8.700000000000000000e+01,1.703394900000000121e+02
8.800000000000000000e+01,1.734552899999999909e+02
8.900000000000000000e+01,1.765696700000000021e+02
9.000000000000000000e+01,1.796815300000000093e+02
9.100000000000000000e+01,1.827906199999999899e+02
9.200000000000000000e+01,1.858961500000000058e+02
9.300000000000000000e+01,1.889975300000000118e+02
9.400000000000000000e+01,1.920934399999999869e+02
9.500000000000000000e+01,1.951839799999999912e+02
9.600000000000000000e+01,1.982684299999999951e+02
9.700000000000000000e+01,2.013459799999999973e+02
9.800000000000000000e+01,2.044157700000000091e+02
9.900000000000000000e+01,2.074778699999999958e+02
1.000000000000000000e+02,2.105313700000000097e+02
1.010000000000000000e+02,2.135761300000000062e+02
1.020000000000000000e+02,2.166116800000000069e+02
1.030000000000000000e+02,2.196371900000000039e+02
1.040000000000000000e+02,2.226525000000000034e+02
1.050000000000000000e+02,2.256570299999999918e+02
1.060000000000000000e+02,2.286504700000000128e+02
1.070000000000000000e+02,2.316322499999999991e+02
1.080000000000000000e+02,2.346019699999999943e+02
1.090000000000000000e+02,2.375590799999999945e+02
1.100000000000000000e+02,2.405027599999999950e+02
1.110000000000000000e+02,2.434331099999999992e+02
1.120000000000000000e+02,2.463495900000000063e+02
1.130000000000000000e+02,2.492516899999999964e+02
1.140000000000000000e+02,2.521390700000000038e+02
1.150000000000000000e+02,2.550116099999999904e+02
1.160000000000000000e+02,2.578687699999999836e+02
1.170000000000000000e+02,2.607100500000000238e+02
1.180000000000000000e+02,2.635352500000000191e+02
1.190000000000000000e+02,2.663439300000000003e+02
1.200000000000000000e+02,2.691357699999999795e+02
1.210000000000000000e+02,2.719102500000000191e+02
1.220000000000000000e+02,2.746668099999999981e+02
1.230000000000000000e+02,2.774050899999999729e+02
1.240000000000000000e+02,2.801245999999999867e+02
1.250000000000000000e+02,2.828251000000000204e+02
1.260000000000000000e+02,2.855062300000000164e+02
1.270000000000000000e+02,2.881670500000000175e+02
1.280000000000000000e+02,2.908074300000000108e+02
1.290000000000000000e+02,2.934270599999999831e+02
1.300000000000000000e+02,2.960249900000000025e+02
1.310000000000000000e+02,2.986007999999999925e+02
1.320000000000000000e+02,3.011539599999999837e+02
1.330000000000000000e+02,3.036836200000000190e+02
1.340000000000000000e+02,3.061892399999999839e+02
1.350000000000000000e+02,3.086697399999999902e+02
1.360000000000000000e+02,3.111245099999999866e+02
1.370000000000000000e+02,3.135525499999999965e+02
1.380000000000000000e+02,3.159530300000000125e+02
1.390000000000000000e+02,3.183250699999999824e+02
1.400000000000000000e+02,3.206676899999999932e+02
1.410000000000000000e+02,3.229798900000000117e+02
1.420000000000000000e+02,3.252604999999999791e+02
1.430000000000000000e+02,3.275088799999999765e+02
1.440000000000000000e+02,3.297237900000000081e+02
1.450000000000000000e+02,3.319039300000000026e+02
1.460000000000000000e+02,3.340484000000000151e+02
1.470000000000000000e+02,3.361561300000000188e+02
1.480000000000000000e+02,3.382257999999999925e+02
1.490000000000000000e+02,3.402564399999999978e+02
1.500000000000000000e+02,3.422468900000000076e+02
1.510000000000000000e+02,3.441961999999999762e+02
1.520000000000000000e+02,3.461032400000000280e+02
1.530000000000000000e+02,3.479672199999999975e+02
1.540000000000000000e+02,3.497875700000000165e+02
1.550000000000000000e+02,3.515635399999999890e+02
1.560000000000000000e+02,3.532946200000000090e+02
1.570000000000000000e+02,3.549802900000000250e+02
1.580000000000000000e+02,3.566204500000000053e+02
1.590000000000000000e+02,3.582152399999999943e+02
1.600000000000000000e+02,3.597642799999999852e+02
1.610000000000000000e+02,3.612682199999999852e+02
1.620000000000000000e+02,3.627276600000000144e+02
1.630000000000000000e+02,3.641431000000000040e+02
1.640000000000000000e+02,3.655153799999999933e+02
1.650000000000000000e+02,3.668459799999999973e+02
1.660000000000000000e+02,3.681358599999999797e+02
1.670000000000000000e+02,3.693867799999999875e+02
1.680000000000000000e+02,3.706003699999999981e+02
1.690000000000000000e+02,3.717785299999999893e+02
1.700000000000000000e+02,3.729230999999999767e+02
1.710000000000000000e+02,3.740362900000000081e+02
1.720000000000000000e+02,3.751201500000000237e+02
1.730000000000000000e+02,3.761769100000000208e+02
1.740000000000000000e+02,3.772087700000000154e+02
1.750000000000000000e+02,3.782185999999999808e+02
1.760000000000000000e+02,3.792083700000000022e+02
1.770000000000000000e+02,3.801806900000000269e+02
1.780000000000000000e+02,3.811379400000000146e+02
1.790000000000000000e+02,3.820826700000000073e+02
1.800000000000000000e+02,3.830169700000000148e+02
1.810000000000000000e+02,3.839434499999999844e+02
1.820000000000000000e+02,3.848640100000000075e+02
1.830000000000000000e+02,3.857810699999999997e+02
1.840000000000000000e+02,3.866969599999999900e+02
1.850000000000000000e+02,3.876136200000000258e+02
1.860000000000000000e+02,3.885331100000000220e+02
1.870000000000000000e+02,3.894573700000000258e+02
1.880000000000000000e+02,3.903884899999999902e+02
1.890000000000000000e+02,3.913285500000000070e+02
1.900000000000000000e+02,3.922791100000000029e+02
1.910000000000000000e+02,3.932423699999999940e+02
1.920000000000000000e+02,3.942198500000000081e+02
1.930000000000000000e+02,3.952136499999999728e+02
1.940000000000000000e+02,3.962251899999999978e+02
1.950000000000000000e+02,3.972569899999999734e+02
1.960000000000000000e+02,3.983105800000000158e+02
1.970000000000000000e+02,3.993877899999999954e+02
1.980000000000000000e+02,4.004906599999999912e+02
1.990000000000000000e+02,4.016215199999999754e+02
2.000000000000000000e+02,4.027824100000000271e+02
2.010000000000000000e+02,4.039754599999999982e+02
2.020000000000000000e+02,4.052028500000000122e+02
2.030000000000000000e+02,4.064672499999999786e+02
2.040000000000000000e+02,4.077715099999999779e+02
2.050000000000000000e+02,4.091179500000000075e+02
2.060000000000000000e+02,4.105101300000000037e+02
2.070000000000000000e+02,4.119505899999999770e+02
2.080000000000000000e+02,4.134434800000000223e+02
2.090000000000000000e+02,4.149921299999999746e+02
2.100000000000000000e+02,4.166002500000000168e+02
2.110000000000000000e+02,4.182726099999999860e+02
2.120000000000000000e+02,4.200135500000000093e+02
2.130000000000000000e+02,4.218270600000000172e+02
2.140000000000000000e+02,4.237188100000000190e+02
2.150000000000000000e+02,4.256937899999999786e+02
2.160000000000000000e+02,4.277573199999999929e+02
2.170000000000000000e+02,4.299144299999999816e+02
2.180000000000000000e+02,4.321700399999999718e+02
2.190000000000000000e+02,4.345286600000000021e+02
2.200000000000000000e+02,4.369940500000000156e+02
2.210000000000000000e+02,4.395680800000000090e+02
2.220000000000000000e+02,4.422511900000000082e+02
2.230000000000000000e+02,4.450398599999999760e+02
2.240000000000000000e+02,4.479280999999999722e+02
2.250000000000000000e+02,4.509045100000000161e+02
2.260000000000000000e+02,4.539525499999999738e+02
2.270000000000000000e+02,4.570506599999999935e+02
2.280000000000000000e+02,4.601721200000000067e+02
2.290000000000000000e+02,4.632885999999999740e+02
2.300000000000000000e+02,4.663725299999999834e+02
2.310000000000000000e+02,4.694021599999999808e+02
2.320000000000000000e+02,4.723644100000000208e+02
2.330000000000000000e+02,4.752553399999999897e+02
2.340000000000000000e+02,4.780788900000000012e+02
2.350000000000000000e+02,4.808427399999999921e+02
2.360000000000000000e+02,4.835546600000000126e+02
2.370000000000000000e+02,4.862201200000000085e+02
2.380000000000000000e+02,4.888437500000000000e+02
2.390000000000000000e+02,4.914286500000000046e+02
2.400000000000000000e+02,4.939777500000000146e+02
2.410000000000000000e+02,4.964930699999999888e+02
2.420000000000000000e+02,4.989768399999999815e+02
2.430000000000000000e+02,5.014306599999999889e+02
2.440000000000000000e+02,5.038560800000000199e+02
2.450000000000000000e+02,5.062542399999999816e+02
2.460000000000000000e+02,5.086263700000000085e+02
2.470000000000000000e+02,5.109735400000000141e+02
2.480000000000000000e+02,5.132966300000000501e+02
2.490000000000000000e+02,5.155964999999999918e+02
2.500000000000000000e+02,5.178740800000000490e+02
2.510000000000000000e+02,5.201296399999999949e+02
2.520000000000000000e+02,5.223641400000000203e+02
2.530000000000000000e+02,5.245781899999999496e+02
2.540000000000000000e+02,5.267722199999999475e+02
2.550000000000000000e+02,5.289467799999999897e+02
2.560000000000000000e+02,5.311025399999999763e+02
2.570000000000000000e+02,5.332397499999999582e+02
2.580000000000000000e+02,5.353588899999999740e+02
2.590000000000000000e+02,5.374605099999999993e+02
2.600000000000000000e+02,5.395446799999999712e+02
2.610000000000000000e+02,5.416119400000000041e+02
2.620000000000000000e+02,5.436625400000000354e+02
2.630000000000000000e+02,5.456969000000000278e+02
2.640000000000000000e+02,5.477152700000000323e+02
2.650000000000000000e+02,5.497179599999999482e+02
2.660000000000000000e+02,5.517051999999999907e+02
2.670000000000000000e+02,5.536773100000000341e+02
2.680000000000000000e+02,5.556345199999999522e+02
2.690000000000000000e+02,5.575770300000000361e+02
2.700000000000000000e+02,5.595049999999999955e+02
2.710000000000000000e+02,5.614186999999999443e+02
2.720000000000000000e+02,5.633184199999999464e+02
2.730000000000000000e+02,5.652042800000000398e+02
2.740000000000000000e+02,5.670766599999999471e+02
2.750000000000000000e+02,5.689352999999999838e+02
2.760000000000000000e+02,5.707807599999999866e+02
2.770000000000000000e+02,5.726131000000000313e+02
2.780000000000000000e+02,5.744325000000000045e+02
2.790000000000000000e+02,5.762391400000000203e+02
2.800000000000000000e+02,5.780330800000000409e+02
2.810000000000000000e+02,5.798144499999999653e+02
2.820000000000000000e+02,5.815836199999999963e+02
2.830000000000000000e+02,5.833405199999999695e+02
2.840000000000000000e+02,5.850853299999999990e+02
2.850000000000000000e+02,5.868181200000000217e+02
2.860000000000000000e+02,5.885390599999999495e+02
2.870000000000000000e+02,5.902483499999999594e+02
2.880000000000000000e+02,5.919459799999999632e+02
2.890000000000000000e+02,5.936320799999999736e+02
2.900000000000000000e+02,5.953068200000000161e+02
2.910000000000000000e+02,5.969703399999999647e+02
2.920000000000000000e+02,5.986227400000000216e+02
2.930000000000000000e+02,6.002639799999999468e+02
2.940000000000000000e+02,6.018942899999999554e+02
2.950000000000000000e+02,6.035136700000000474e+02
2.960000000000000000e+02,6.051223099999999704e+02
2.970000000000000000e+02,6.067202099999999518e+02
2.980000000000000000e+02,6.083075599999999667e+02
2.990000000000000000e+02,6.098844000000000278e+02
3.000000000000000000e+02,6.114507399999999961e+02
3.010000000000000000e+02,6.130067699999999604e+02
3.020000000000000000e+02,6.145524900000000343e+02
3.030000000000000000e+02,6.160882000000000289e+02
3.040000000000000000e+02,6.176137700000000450e+02
3.050000000000000000e+02,6.191293299999999817e+02
3.060000000000000000e+02,6.206348900000000413e+02
3.070000000000000000e+02,6.221305499999999711e+02
3.080000000000000000e+02,6.236165200000000368e+02
3.090000000000000000e+02,6.250927699999999732e+02
3.100000000000000000e+02,6.265592699999999695e+02
3.110000000000000000e+02,6.280161699999999882e+02
3.120000000000000000e+02,6.294636199999999917e+02
3.130000000000000000e+02,6.309016100000000051e+02
3.140000000000000000e+02,6.323301999999999907e+02
3.150000000000000000e+02,6.337494500000000244e+02
3.160000000000000000e+02,6.351595499999999674e+02
3.170000000000000000e+02,6.365603599999999460e+02
3.180000000000000000e+02,6.379520899999999983e+02
3.190000000000000000e+02,6.393346599999999853e+02
3.200000000000000000e+02,6.407083699999999453e+02
3.210000000000000000e+02,6.420730600000000550e+02
3.220000000000000000e+02,6.434289599999999609e+02
3.230000000000000000e+02,6.447759399999999914e+02
3.240000000000000000e+02,6.461140100000000075e+02
3.250000000000000000e+02,6.474435999999999467e+02
3.260000000000000000e+02,6.487644699999999602e+02
3.270000000000000000e+02,6.500767200000000230e+02
3.280000000000000000e+02,6.513804300000000467e+02
3.290000000000000000e+02,6.526756000000000313e+02
3.300000000000000000e+02,6.539624000000000024e+02
3.310000000000000000e+02,6.552408400000000483e+02
3.320000000000000000e+02,6.565109899999999925e+02
3.330000000000000000e+02,6.577728899999999612e+02
3.340000000000000000e+02,6.590265500000000429e+02
3.350000000000000000e+02,6.602719700000000103e+02
3.360000000000000000e+02,6.615092200000000275e+02
3.370000000000000000e+02,6.627384600000000319e+02
3.380000000000000000e+02,6.639596599999999853e+02
3.390000000000000000e+02,6.651729100000000017e+02
3.400000000000000000e+02,6.663782300000000305e+02
3.410000000000000000e+02,6.675757399999999961e+02
3.420000000000000000e+02,6.687654400000000123e+02
3.430000000000000000e+02,6.699473299999999654e+02
3.440000000000000000e+02,6.711215200000000323e+02
3.450000000000000000e+02,6.722880199999999604e+02
3.460000000000000000e+02,6.734469599999999900e+02
3.470000000000000000e+02,6.745983300000000327e+02
3.480000000000000000e+02,6.757421299999999746e+02
3.490000000000000000e+02,6.768784200000000055e+02
3.500000000000000000e+02,6.780072000000000116e+02
3.510000000000000000e+02,6.791287200000000439e+02
3.520000000000000000e+02,6.802429200000000264e+02
3.530000000000000000e+02,6.813497899999999845e+02
3.540000000000000000e+02,6.824492800000000443e+02
3.550000000000000000e+02,6.835416900000000169e+02
3.560000000000000000e+02,6.846269499999999653e+02
3.570000000000000000e+02,6.857049600000000282e+02
3.580000000000000000e+02,6.867759399999999914e+02
3.590000000000000000e+02,6.878399699999999939e+02
3.600000000000000000e+02,6.888968499999999722e+02
3.610000000000000000e+02,6.899469000000000278e+02
3.620000000000000000e+02,6.909900499999999965e+02
3.630000000000000000e+02,6.920262500000000045e+02
3.640000000000000000e+02,6.930557300000000396e+02
3.650000000000000000e+02,6.940783699999999499e+02
3.660000000000000000e+02,6.950943600000000515e+02
3.670000000000000000e+02,6.961035200000000032e+02
3.680000000000000000e+02,6.971061399999999821e+02
3.690000000000000000e+02,6.981021100000000388e+02
3.700000000000000000e+02,6.990914900000000216e+02
3.710000000000000000e+02,7.000743400000000065e+02
3.720000000000000000e+02,7.010507199999999557e+02
3.730000000000000000e+02,7.020206299999999828e+02
3.740000000000000000e+02,7.029841900000000123e+02
3.750000000000000000e+02,7.039412800000000061e+02
3.760000000000000000e+02,7.048920900000000529e+02
3.770000000000000000e+02,7.058366099999999506e+02
3.780000000000000000e+02,7.067748400000000402e+02
3.790000000000000000e+02,7.077068500000000313e+02
3.800000000000000000e+02,7.086327499999999873e+02
3.810000000000000000e+02,7.095524299999999585e+02
3.820000000000000000e+02,7.104660599999999704e+02
3.830000000000000000e+02,7.113736599999999726e+02
3.840000000000000000e+02,7.122751500000000533e+02
3.850000000000000000e+02,7.131707199999999602e+02
3.860000000000000000e+02,7.140602400000000216e+02
3.870000000000000000e+02,7.149439700000000357e+02
3.880000000000000000e+02,7.158217200000000275e+02
3.890000000000000000e+02,7.166936600000000226e+02
3.900000000000000000e+02,7.175598099999999704e+02
3.910000000000000000e+02,7.184201699999999846e+02
3.920000000000000000e+02,7.192749000000000024e+02
3.930000000000000000e+02,7.201238399999999729e+02
3.940000000000000000e+02,7.209672199999999975e+02
3.950000000000000000e+02,7.218049300000000130e+02
3.960000000000000000e+02,7.226370200000000068e+02
3.970000000000000000e+02,7.234634999999999536e+02
3.980000000000000000e+02,7.242845499999999674e+02
3.990000000000000000e+02,7.251000400000000354e+02
4.000000000000000000e+02,7.259101000000000568e+02
4.010000000000000000e+02,7.267147200000000566e+02
4.020000000000000000e+02,7.275139799999999468e+02
4.030000000000000000e+02,7.283079199999999673e+02
4.040000000000000000e+02,7.290965599999999540e+02
4.050000000000000000e+02,7.298798799999999574e+02
4.060000000000000000e+02,7.306580199999999650e+02
4.070000000000000000e+02,7.314309100000000399e+02
4.080000000000000000e+02,7.321985499999999547e+02
4.090000000000000000e+02,7.329610599999999749e+02
4.100000000000000000e+02,7.337185100000000375e+02
4.110000000000000000e+02,7.344708900000000540e+02
4.120000000000000000e+02,7.352182000000000244e+02
4.130000000000000000e+02,7.359605099999999993e+02
4.140000000000000000e+02,7.366978100000000040e+02
4.150000000000000000e+02,7.374301100000000133e+02
4.160000000000000000e+02,7.381574699999999893e+02
4.170000000000000000e+02,7.388799999999999955e+02
4.180000000000000000e+02,7.395976600000000190e+02
4.190000000000000000e+02,7.403104899999999589e+02
4.200000000000000000e+02,7.410184900000000425e+02
4.210000000000000000e+02,7.417217399999999543e+02
4.220000000000000000e+02,7.424202299999999468e+02
4.230000000000000000e+02,7.431140699999999697e+02
4.240000000000000000e+02,7.438031600000000481e+02
4.250000000000000000e+02,7.444876699999999801e+02
4.260000000000000000e+02,7.451674799999999550e+02
4.270000000000000000e+02,7.458427100000000110e+02
4.280000000000000000e+02,7.465134299999999712e+02
4.290000000000000000e+02,7.471796299999999746e+02
4.300000000000000000e+02,7.478413100000000213e+02
4.310000000000000000e+02,7.484984699999999975e+02
4.320000000000000000e+02,7.491512500000000045e+02
4.330000000000000000e+02,7.497995600000000422e+02
4.340000000000000000e+02,7.504435399999999845e+02
4.350000000000000000e+02,7.510830700000000206e+02
4.360000000000000000e+02,7.517183199999999488e+02
4.370000000000000000e+02,7.523492400000000089e+02
4.380000000000000000e+02,7.529759500000000116e+02
4.390000000000000000e+02,7.535983899999999949e+02
4.400000000000000000e+02,7.542166099999999460e+02
4.410000000000000000e+02,7.548306300000000419e+02
4.420000000000000000e+02,7.554404899999999543e+02
4.430000000000000000e+02,7.560461999999999989e+02
4.440000000000000000e+02,7.566477700000000368e+02
4.450000000000000000e+02,7.572453000000000429e+02
4.460000000000000000e+02,7.578387500000000045e+02
4.470000000000000000e+02,7.584281600000000481e+02
4.480000000000000000e+02,7.590135500000000093e+02
4.490000000000000000e+02,7.595949699999999893e+02
4.500000000000000000e+02,7.601724199999999882e+02
4.510000000000000000e+02,7.607459700000000566e+02
4.520000000000000000e+02,7.613156099999999924e+02
4.530000000000000000e+02,7.618813499999999976e+02
4.540000000000000000e+02,7.624433000000000220e+02
4.550000000000000000e+02,7.630013400000000274e+02
4.560000000000000000e+02,7.635556000000000267e+02
4.570000000000000000e+02,7.641061399999999821e+02
4.580000000000000000e+02,7.646528899999999567e+02
4.590000000000000000e+02,7.651959200000000010e+02
4.600000000000000000e+02,7.657352300000000014e+02
4.610000000000000000e+02,7.662708099999999831e+02
4.620000000000000000e+02,7.668028000000000475e+02
4.630000000000000000e+02,7.673311200000000554e+02
4.640000000000000000e+02,7.678558299999999690e+02
4.650000000000000000e+02,7.683770100000000411e+02
4.660000000000000000e+02,7.688945899999999938e+02
4.670000000000000000e+02,7.694086300000000165e+02
4.680000000000000000e+02,7.699191299999999956e+02
4.690000000000000000e+02,7.704262099999999691e+02
4.700000000000000000e+02,7.709297500000000127e+02
4.710000000000000000e+02,7.714298700000000508e+02
4.720000000000000000e+02,7.719265699999999697e+02
4.730000000000000000e+02,7.724198599999999715e+02
4.740000000000000000e+02,7.729097900000000436e+02
4.750000000000000000e+02,7.733963599999999587e+02
4.760000000000000000e+02,7.738796399999999949e+02
4.770000000000000000e+02,7.743595000000000255e+02
4.780000000000000000e+02,7.748361800000000130e+02
4.790000000000000000e+02,7.753095100000000457e+02
4.800000000000000000e+02,7.757796600000000353e+02
4.810000000000000000e+02,7.762465200000000323e+02
4.820000000000000000e+02,7.767102099999999609e+02
4.830000000000000000e+02,7.771707199999999602e+02
4.840000000000000000e+02,7.776280500000000302e+02
4.850000000000000000e+02,7.780822100000000319e+02
4.860000000000000000e+02,7.785332600000000411e+02
4.870000000000000000e+02,7.789812600000000202e+02
4.880000000000000000e+02,7.794261500000000069e+02
4.890000000000000000e+02,7.798679799999999886e+02
4.900000000000000000e+02,7.803068200000000161e+02
4.910000000000000000e+02,7.807425500000000511e+02
4.920000000000000000e+02,7.811753499999999804e+02
4.930000000000000000e+02,7.816051599999999553e+02
4.940000000000000000e+02,7.820319799999999759e+02
4.950000000000000000e+02,7.824558700000000044e+02
4.960000000000000000e+02,7.828768900000000031e+02
4.970000000000000000e+02,7.832949800000000096e+02
4.980000000000000000e+02,7.837101400000000240e+02
4.990000000000000000e+02,7.841224999999999454e+02
5.000000000000000000e+02,7.845320400000000518e+02
5.010000000000000000e+02,7.849387199999999893e+02
5.020000000000000000e+02,7.853425899999999729e+02
5.030000000000000000e+02,7.857437099999999646e+02
5.040000000000000000e+02,7.861420299999999770e+02
5.050000000000000000e+02,7.865375999999999976e+02
5.060000000000000000e+02,7.869304799999999886e+02
5.070000000000000000e+02,7.873206199999999626e+02
5.080000000000000000e+02,7.877080700000000206e+02
5.090000000000000000e+02,7.880928300000000490e+02
5.100000000000000000e+02,7.884749100000000226e+02
5.110000000000000000e+02,7.888544299999999794e+02
5.120000000000000000e+02,7.892312600000000202e+02
5.130000000000000000e+02,7.896054699999999684e+02
5.140000000000000000e+02,7.899771700000000010e+02
5.150000000000000000e+02,7.903462500000000546e+02
5.160000000000000000e+02,7.907127699999999777e+02
5.170000000000000000e+02,7.910767799999999852e+02
5.180000000000000000e+02,7.914382299999999759e+02
5.190000000000000000e+02,7.917971800000000258e+02
5.200000000000000000e+02,7.921536899999999832e+02
5.210000000000000000e+02,7.925076900000000251e+02
5.220000000000000000e+02,7.928593100000000504e+02
5.230000000000000000e+02,7.932084399999999960e+02
5.240000000000000000e+02,7.935551799999999503e+02
5.250000000000000000e+02,7.938994800000000396e+02
5.260000000000000000e+02,7.942413900000000240e+02
5.270000000000000000e+02,7.945809900000000425e+02
5.280000000000000000e+02,7.949182100000000446e+02
5.290000000000000000e+02,7.952530500000000302e+02
5.300000000000000000e+02,7.955856300000000374e+02
5.310000000000000000e+02,7.959158300000000281e+02
5.320000000000000000e+02,7.962437700000000405e+02
5.330000000000000000e+02,7.965694600000000491e+02
5.340000000000000000e+02,7.968928799999999910e+02
5.350000000000000000e+02,7.972141100000000051e+02
5.360000000000000000e+02,7.975330199999999650e+02
5.370000000000000000e+02,7.978497300000000223e+02
5.380000000000000000e+02,7.981642500000000382e+02
5.390000000000000000e+02,7.984766200000000254e+02
5.400000000000000000e+02,7.987867999999999711e+02
5.410000000000000000e+02,7.990947899999999890e+02
5.420000000000000000e+02,7.994007000000000289e+02
5.430000000000000000e+02,7.997044700000000148e+02
5.440000000000000000e+02,8.000060999999999467e+02
5.450000000000000000e+02,8.003056000000000267e+02
5.460000000000000000e+02,8.006030899999999519e+02
5.470000000000000000e+02,8.008985000000000127e+02
5.480000000000000000e+02,8.011918299999999817e+02
5.490000000000000000e+02,8.014830899999999474e+02
5.500000000000000000e+02,8.017723999999999478e+02
5.510000000000000000e+02,8.020596299999999701e+02
5.520000000000000000e+02,8.023449100000000271e+02
5.530000000000000000e+02,8.026281699999999546e+02
5.540000000000000000e+02,8.029094800000000305e+02
5.550000000000000000e+02,8.031888400000000274e+02
5.560000000000000000e+02,8.034661899999999832e+02
5.570000000000000000e+02,8.037417000000000371e+02
5.580000000000000000e+02,8.040152000000000498e+02
5.590000000000000000e+02,8.042868700000000217e+02
5.600000000000000000e+02,8.045565800000000536e+02
5.610000000000000000e+02,8.048244600000000446e+02
5.620000000000000000e+02,8.050904500000000326e+02
5.630000000000000000e+02,8.053546099999999797e+02
5.640000000000000000e+02,8.056168800000000374e+02
5.650000000000000000e+02,8.058773800000000165e+02
5.660000000000000000e+02,8.061360499999999547e+02
5.670000000000000000e+02,8.063928799999999910e+02
5.680000000000000000e+02,8.066479500000000371e+02
5.690000000000000000e+02,8.069011799999999539e+02
5.700000000000000000e+02,8.071527099999999564e+02
5.710000000000000000e+02,8.074024699999999939e+02
5.720000000000000000e+02,8.076505100000000539e+02
5.730000000000000000e+02,8.078967900000000100e+02
5.740000000000000000e+02,8.081413599999999633e+02
5.750000000000000000e+02,8.083842200000000275e+02
5.760000000000000000e+02,8.086253699999999753e+02
5.770000000000000000e+02,8.088648100000000341e+02
5.780000000000000000e+02,8.091026000000000522e+02
5.790000000000000000e+02,8.093387500000000045e+02
5.800000000000000000e+02,8.095732400000000553e+02
5.810000000000000000e+02,8.098060900000000402e+02
5.820000000000000000e+02,8.100372899999999845e+02
5.830000000000000000e+02,8.102669100000000526e+02
5.840000000000000000e+02,8.104948699999999917e+02
5.850000000000000000e+02,8.107213100000000168e+02
5.860000000000000000e+02,8.109461099999999760e+02
5.870000000000000000e+02,8.111693699999999581e+02
5.880000000000000000e+02,8.113910499999999502e+02
5.890000000000000000e+02,8.116112100000000282e+02
5.900000000000000000e+02,8.118297700000000532e+02
5.910000000000000000e+02,8.120468799999999874e+02
5.920000000000000000e+02,8.122623899999999821e+02
5.930000000000000000e+02,8.124764400000000251e+02
5.940000000000000000e+02,8.126890300000000025e+02
5.950000000000000000e+02,8.129000200000000405e+02
5.960000000000000000e+02,8.131096199999999499e+02
5.970000000000000000e+02,8.133176899999999705e+02
5.980000000000000000e+02,8.135243500000000267e+02
5.990000000000000000e+02,8.137295500000000175e+02