# Time [s], Mass [Kg]
1.000000000000000000e+00,1.000000000000000000e+00
2.000000000000000000e+00,1.000000000000000000e+00
3.000000000000000000e+00,1.000000000000000000e+00
4.000000000000000000e+00,1.000000000000000000e+00
5.000000000000000000e+00,1.000000000000000000e+00
6.000000000000000000e+00,1.000000000000000000e+00
7.000000000000000000e+00,9.999999400000000316e-01
8.000000000000000000e+00,9.999995799999999990e-01
9.000000000000000000e+00,9.999980299999999822e-01
1.000000000000000000e+01,9.999927899999999648e-01
1.100000000000000000e+01,9.999775899999999718e-01
1.200000000000000000e+01,9.999393800000000443e-01
1.300000000000000000e+01,9.998549199999999804e-01
1.400000000000000000e+01,9.996869000000000449e-01
1.500000000000000000e+01,9.993820799999999505e-01
1.600000000000000000e+01,9.988753200000000110e-01
1.700000000000000000e+01,9.981031999999999682e-01
1.800000000000000000e+01,9.970264399999999583e-01
1.900000000000000000e+01,9.956470099999999990e-01
2.000000000000000000e+01,9.940136099999999919e-01
2.100000000000000000e+01,9.922143199999999830e-01
2.200000000000000000e+01,9.903505400000000014e-01
2.300000000000000000e+01,9.885411899999999585e-01
2.400000000000000000e+01,9.869083199999999501e-01
2.500000000000000000e+01,9.855433099999999502e-01
2.600000000000000000e+01,9.844682200000000050e-01
2.700000000000000000e+01,9.835501899999999909e-01
2.800000000000000000e+01,9.824450000000000127e-01
2.900000000000000000e+01,9.810996699999999793e-01
3.000000000000000000e+01,9.795812400000000197e-01
3.100000000000000000e+01,9.779618399999999712e-01
3.200000000000000000e+01,9.763206199999999724e-01
3.300000000000000000e+01,9.747299600000000064e-01
3.400000000000000000e+01,9.732553999999999927e-01
3.500000000000000000e+01,9.719412899999999578e-01
3.600000000000000000e+01,9.707974799999999904e-01
3.700000000000000000e+01,9.697779399999999494e-01
3.800000000000000000e+01,9.687794400000000472e-01
3.900000000000000000e+01,9.676880199999999821e-01
4.000000000000000000e+01,9.664586800000000144e-01
4.100000000000000000e+01,9.651259199999999705e-01
4.200000000000000000e+01,9.637322999999999862e-01
4.300000000000000000e+01,9.623229500000000103e-01
4.400000000000000000e+01,9.609401199999999532e-01
4.500000000000000000e+01,9.596199399999999491e-01
4.600000000000000000e+01,9.583886900000000431e-01
4.700000000000000000e+01,9.572567300000000001e-01
4.800000000000000000e+01,9.562124600000000418e-01
4.900000000000000000e+01,9.552204600000000490e-01
5.000000000000000000e+01,9.542294099999999446e-01
5.100000000000000000e+01,9.531912799999999741e-01
5.200000000000000000e+01,9.520823999999999954e-01
5.300000000000000000e+01,9.509089600000000253e-01
5.400000000000000000e+01,9.496936799999999845e-01
5.500000000000000000e+01,9.484624299999999675e-01
5.600000000000000000e+01,9.472388000000000474e-01
5.700000000000000000e+01,9.460446799999999712e-01
5.800000000000000000e+01,9.448963999999999697e-01
5.900000000000000000e+01,9.438039099999999682e-01
6.000000000000000000e+01,9.427673800000000437e-01
6.100000000000000000e+01,9.417768699999999882e-01
6.200000000000000000e+01,9.408126500000000281e-01
6.300000000000000000e+01,9.398492000000000512e-01
6.400000000000000000e+01,9.388629800000000136e-01
6.500000000000000000e+01,9.378390899999999863e-01
6.600000000000000000e+01,9.367756799999999995e-01
6.700000000000000000e+01,9.356808699999999979e-01
6.800000000000000000e+01,9.345682899999999682e-01
6.900000000000000000e+01,9.334527900000000322e-01
7.000000000000000000e+01,9.323478899999999570e-01
7.100000000000000000e+01,9.312647600000000248e-01
7.200000000000000000e+01,9.302110700000000287e-01
7.300000000000000000e+01,9.291903400000000035e-01
7.400000000000000000e+01,9.282005399999999629e-01
7.500000000000000000e+01,9.272347699999999859e-01
7.600000000000000000e+01,9.262816299999999670e-01
7.700000000000000000e+01,9.253274200000000116e-01
7.800000000000000000e+01,9.243592600000000159e-01
7.900000000000000000e+01,9.233682199999999618e-01
8.000000000000000000e+01,9.223512999999999851e-01
8.100000000000000000e+01,9.213113200000000447e-01
8.200000000000000000e+01,9.202551799999999504e-01
8.300000000000000000e+01,9.191917200000000454e-01
8.400000000000000000e+01,9.181297999999999959e-01
8.500000000000000000e+01,9.170770000000000310e-01
8.600000000000000000e+01,9.160389899999999974e-01
8.700000000000000000e+01,9.150186799999999732e-01
8.800000000000000000e+01,9.140160099999999899e-01
8.900000000000000000e+01,9.130279999999999507e-01
9.000000000000000000e+01,9.120487000000000455e-01
9.100000000000000000e+01,9.110701700000000125e-01
9.200000000000000000e+01,9.100844900000000237e-01
9.300000000000000000e+01,9.090846200000000099e-01
9.400000000000000000e+01,9.080662099999999848e-01
9.500000000000000000e+01,9.070282600000000306e-01
9.600000000000000000e+01,9.059733199999999709e-01
9.700000000000000000e+01,9.049059200000000303e-01
9.800000000000000000e+01,9.038321400000000061e-01
9.900000000000000000e+01,9.027576400000000278e-01
1.000000000000000000e+02,9.016870900000000244e-01
1.010000000000000000e+02,9.006235599999999897e-01
1.020000000000000000e+02,8.995680200000000237e-01
1.030000000000000000e+02,8.985194600000000476e-01
1.040000000000000000e+02,8.974748799999999749e-01
1.050000000000000000e+02,8.964296000000000486e-01
1.060000000000000000e+02,8.953782900000000211e-01
1.070000000000000000e+02,8.943155400000000199e-01
1.080000000000000000e+02,8.932375299999999463e-01
1.090000000000000000e+02,8.921421800000000069e-01
1.100000000000000000e+02,8.910297799999999935e-01
1.110000000000000000e+02,8.899027099999999857e-01
1.120000000000000000e+02,8.887645600000000368e-01
1.130000000000000000e+02,8.876193799999999579e-01
1.140000000000000000e+02,8.864707400000000348e-01
1.150000000000000000e+02,8.853210799999999825e-01
1.160000000000000000e+02,8.841713100000000436e-01
1.170000000000000000e+02,8.830208200000000396e-01
1.180000000000000000e+02,8.818675299999999551e-01
1.190000000000000000e+02,8.807080400000000253e-01
1.200000000000000000e+02,8.795385399999999798e-01
1.210000000000000000e+02,8.783552599999999710e-01
1.220000000000000000e+02,8.771552999999999711e-01
1.230000000000000000e+02,8.759371000000000240e-01
1.240000000000000000e+02,8.747008400000000350e-01
1.250000000000000000e+02,8.734478399999999754e-01
1.260000000000000000e+02,8.721805799999999831e-01
1.270000000000000000e+02,8.709014699999999554e-01
1.280000000000000000e+02,8.696127500000000454e-01
1.290000000000000000e+02,8.683153999999999595e-01
1.300000000000000000e+02,8.670094000000000412e-01
1.310000000000000000e+02,8.656932699999999592e-01
1.320000000000000000e+02,8.643647399999999648e-01
1.330000000000000000e+02,8.630208400000000113e-01
1.340000000000000000e+02,8.616584499999999647e-01
1.350000000000000000e+02,8.602752099999999569e-01
1.360000000000000000e+02,8.588696099999999500e-01
1.370000000000000000e+02,8.574412500000000437e-01
1.380000000000000000e+02,8.559907700000000119e-01
1.390000000000000000e+02,8.545195500000000166e-01
1.400000000000000000e+02,8.530288900000000396e-01
1.410000000000000000e+02,8.515198800000000068e-01
1.420000000000000000e+02,8.499928700000000115e-01
1.430000000000000000e+02,8.484471999999999570e-01
1.440000000000000000e+02,8.468813299999999877e-01
1.450000000000000000e+02,8.452932800000000357e-01
1.460000000000000000e+02,8.436809199999999453e-01
1.470000000000000000e+02,8.420425099999999663e-01
1.480000000000000000e+02,8.403769700000000009e-01
1.490000000000000000e+02,8.386840199999999745e-01
1.500000000000000000e+02,8.369644899999999499e-01
1.510000000000000000e+02,8.352193199999999873e-01
1.520000000000000000e+02,8.334500799999999820e-01
1.530000000000000000e+02,8.316578900000000107e-01
1.540000000000000000e+02,8.298435800000000251e-01
1.550000000000000000e+02,8.280074600000000284e-01
1.560000000000000000e+02,8.261493399999999543e-01
1.570000000000000000e+02,8.242690599999999979e-01
1.580000000000000000e+02,8.223665999999999476e-01
1.590000000000000000e+02,8.204423800000000266e-01
1.600000000000000000e+02,8.184976000000000473e-01
1.610000000000000000e+02,8.165339799999999926e-01
1.620000000000000000e+02,8.145537999999999945e-01
1.630000000000000000e+02,8.125593700000000030e-01
1.640000000000000000e+02,8.105531900000000345e-01
1.650000000000000000e+02,8.085372400000000459e-01
1.660000000000000000e+02,8.065133100000000388e-01
1.670000000000000000e+02,8.044828800000000113e-01
1.680000000000000000e+02,8.024473800000000434e-01
1.690000000000000000e+02,8.004082999999999615e-01
1.700000000000000000e+02,7.983675599999999761e-01
1.710000000000000000e+02,7.963270500000000363e-01
1.720000000000000000e+02,7.942890500000000520e-01
1.730000000000000000e+02,7.922560600000000397e-01
1.740000000000000000e+02,7.902302700000000124e-01
1.750000000000000000e+02,7.882137299999999458e-01
1.760000000000000000e+02,7.862082099999999629e-01
1.770000000000000000e+02,7.842152100000000514e-01
1.780000000000000000e+02,7.822361599999999582e-01
1.790000000000000000e+02,7.802723599999999982e-01
1.800000000000000000e+02,7.783252600000000188e-01
1.810000000000000000e+02,7.763962100000000310e-01
1.820000000000000000e+02,7.744869599999999465e-01
1.830000000000000000e+02,7.725989800000000463e-01
1.840000000000000000e+02,7.707339500000000010e-01
1.850000000000000000e+02,7.688932400000000333e-01
1.860000000000000000e+02,7.670780999999999850e-01
1.870000000000000000e+02,7.652897199999999511e-01
1.880000000000000000e+02,7.635294799999999826e-01
1.890000000000000000e+02,7.617985000000000451e-01
1.900000000000000000e+02,7.600982800000000150e-01
1.910000000000000000e+02,7.584301799999999538e-01
1.920000000000000000e+02,7.567959399999999448e-01
1.930000000000000000e+02,7.551972900000000211e-01
1.940000000000000000e+02,7.536358800000000357e-01
1.950000000000000000e+02,7.521135799999999483e-01
1.960000000000000000e+02,7.506323499999999482e-01
1.970000000000000000e+02,7.491942600000000008e-01
1.980000000000000000e+02,7.478014800000000184e-01
1.990000000000000000e+02,7.464565600000000467e-01
2.000000000000000000e+02,7.451621299999999781e-01
2.010000000000000000e+02,7.439211599999999702e-01
2.020000000000000000e+02,7.427368199999999643e-01
2.030000000000000000e+02,7.416123700000000207e-01
2.040000000000000000e+02,7.405515299999999579e-01
2.050000000000000000e+02,7.395579199999999798e-01
2.060000000000000000e+02,7.386355399999999793e-01
2.070000000000000000e+02,7.377884399999999898e-01
2.080000000000000000e+02,7.370204299999999487e-01
2.090000000000000000e+02,7.363353999999999733e-01
2.100000000000000000e+02,7.357363099999999489e-01
2.110000000000000000e+02,7.352254400000000079e-01
2.120000000000000000e+02,7.348032599999999581e-01
2.130000000000000000e+02,7.344682200000000050e-01
2.140000000000000000e+02,7.342157999999999740e-01
2.150000000000000000e+02,7.340380499999999975e-01
2.160000000000000000e+02,7.339235499999999801e-01
2.170000000000000000e+02,7.338578700000000232e-01
2.180000000000000000e+02,7.338257400000000041e-01
2.190000000000000000e+02,7.338130499999999667e-01
2.200000000000000000e+02,7.338094099999999953e-01
2.210000000000000000e+02,7.338087599999999489e-01
2.220000000000000000e+02,7.338086999999999804e-01
2.230000000000000000e+02,7.338086999999999804e-01
2.240000000000000000e+02,7.338086999999999804e-01
2.250000000000000000e+02,7.338086999999999804e-01
2.260000000000000000e+02,7.338086999999999804e-01
2.270000000000000000e+02,7.338086999999999804e-01
2.280000000000000000e+02,7.338086999999999804e-01
2.290000000000000000e+02,7.338086999999999804e-01
2.300000000000000000e+02,7.338086999999999804e-01
2.310000000000000000e+02,7.338086999999999804e-01
2.320000000000000000e+02,7.338086999999999804e-01
2.330000000000000000e+02,7.338086999999999804e-01
2.340000000000000000e+02,7.338086999999999804e-01
2.350000000000000000e+02,7.338086999999999804e-01
2.360000000000000000e+02,7.338086999999999804e-01
2.370000000000000000e+02,7.338086999999999804e-01
2.380000000000000000e+02,7.338086999999999804e-01
2.390000000000000000e+02,7.338086999999999804e-01
2.400000000000000000e+02,7.338086999999999804e-01
2.410000000000000000e+02,7.338086999999999804e-01
2.420000000000000000e+02,7.338086999999999804e-01
2.430000000000000000e+02,7.338086999999999804e-01
2.440000000000000000e+02,7.338086999999999804e-01
2.450000000000000000e+02,7.338086999999999804e-01
2.460000000000000000e+02,7.338086999999999804e-01
2.470000000000000000e+02,7.338086999999999804e-01
2.480000000000000000e+02,7.338086999999999804e-01
2.490000000000000000e+02,7.338086999999999804e-01
2.500000000000000000e+02,7.338086999999999804e-01
2.510000000000000000e+02,7.338086999999999804e-01
2.520000000000000000e+02,7.338086999999999804e-01
2.530000000000000000e+02,7.338086999999999804e-01
2.540000000000000000e+02,7.338086999999999804e-01
2.550000000000000000e+02,7.338086999999999804e-01
2.560000000000000000e+02,7.338086999999999804e-01
2.570000000000000000e+02,7.338086999999999804e-01
2.580000000000000000e+02,7.338086999999999804e-01
2.590000000000000000e+02,7.338086999999999804e-01
2.600000000000000000e+02,7.338086999999999804e-01
2.610000000000000000e+02,7.338086999999999804e-01
2.620000000000000000e+02,7.338086999999999804e-01
2.630000000000000000e+02,7.338086999999999804e-01
2.640000000000000000e+02,7.338086999999999804e-01
2.650000000000000000e+02,7.338086999999999804e-01
2.660000000000000000e+02,7.338086999999999804e-01
2.670000000000000000e+02,7.338086999999999804e-01
2.680000000000000000e+02,7.338086999999999804e-01
2.690000000000000000e+02,7.338086999999999804e-01
2.700000000000000000e+02,7.338086999999999804e-01
2.710000000000000000e+02,7.338086999999999804e-01
2.720000000000000000e+02,7.338086999999999804e-01
2.730000000000000000e+02,7.338086999999999804e-01
2.740000000000000000e+02,7.338086999999999804e-01
2.750000000000000000e+02,7.338086999999999804e-01
2.760000000000000000e+02,7.338086999999999804e-01
2.770000000000000000e+02,7.338086999999999804e-01
2.780000000000000000e+02,7.338086999999999804e-01
2.790000000000000000e+02,7.338086999999999804e-01
2.800000000000000000e+02,7.338086999999999804e-01
2.810000000000000000e+02,7.338086999999999804e-01
2.820000000000000000e+02,7.338086999999999804e-01
2.830000000000000000e+02,7.338086999999999804e-01
2.840000000000000000e+02,7.338086999999999804e-01
2.850000000000000000e+02,7.338086999999999804e-01
2.860000000000000000e+02,7.338086999999999804e-01
2.870000000000000000e+02,7.338086999999999804e-01
2.880000000000000000e+02,7.338086999999999804e-01
2.890000000000000000e+02,7.338086999999999804e-01
2.900000000000000000e+02,7.338086999999999804e-01
2.910000000000000000e+02,7.338086999999999804e-01
2.920000000000000000e+02,7.338086999999999804e-01
2.930000000000000000e+02,7.338086999999999804e-01
2.940000000000000000e+02,7.338086999999999804e-01
2.950000000000000000e+02,7.338086999999999804e-01
2.960000000000000000e+02,7.338086999999999804e-01
2.970000000000000000e+02,7.338086999999999804e-01
2.980000000000000000e+02,7.338086999999999804e-01
2.990000000000000000e+02,7.338086999999999804e-01
3.000000000000000000e+02,7.338086999999999804e-01
3.010000000000000000e+02,7.338086999999999804e-01
3.020000000000000000e+02,7.338086999999999804e-01
3.030000000000000000e+02,7.338086999999999804e-01
3.040000000000000000e+02,7.338086999999999804e-01
3.050000000000000000e+02,7.338086999999999804e-01
3.060000000000000000e+02,7.338086999999999804e-01
3.070000000000000000e+02,7.338086999999999804e-01
3.080000000000000000e+02,7.338086999999999804e-01
3.090000000000000000e+02,7.338086999999999804e-01
3.100000000000000000e+02,7.338086999999999804e-01
3.110000000000000000e+02,7.338086999999999804e-01
3.120000000000000000e+02,7.338086999999999804e-01
3.130000000000000000e+02,7.338086999999999804e-01
3.140000000000000000e+02,7.338086999999999804e-01
3.150000000000000000e+02,7.338086999999999804e-01
3.160000000000000000e+02,7.338086999999999804e-01
3.170000000000000000e+02,7.338086999999999804e-01
3.180000000000000000e+02,7.338086999999999804e-01
3.190000000000000000e+02,7.338086999999999804e-01
3.200000000000000000e+02,7.338086999999999804e-01
3.210000000000000000e+02,7.338086999999999804e-01
3.220000000000000000e+02,7.338086999999999804e-01
3.230000000000000000e+02,7.338086999999999804e-01
3.240000000000000000e+02,7.338086999999999804e-01
3.250000000000000000e+02,7.338086999999999804e-01
3.260000000000000000e+02,7.338086999999999804e-01
3.270000000000000000e+02,7.338086999999999804e-01
3.280000000000000000e+02,7.338086999999999804e-01
3.290000000000000000e+02,7.338086999999999804e-01
3.300000000000000000e+02,7.338086999999999804e-01
3.310000000000000000e+02,7.338086999999999804e-01
3.320000000000000000e+02,7.338086999999999804e-01
3.330000000000000000e+02,7.338086999999999804e-01
3.340000000000000000e+02,7.338086999999999804e-01
3.350000000000000000e+02,7.338086999999999804e-01
3.360000000000000000e+02,7.338086999999999804e-01
3.370000000000000000e+02,7.338086999999999804e-01
3.380000000000000000e+02,7.338086999999999804e-01
3.390000000000000000e+02,7.338086999999999804e-01
3.400000000000000000e+02,7.338086999999999804e-01
3.410000000000000000e+02,7.338086999999999804e-01
3.420000000000000000e+02,7.338086999999999804e-01
3.430000000000000000e+02,7.338086999999999804e-01
3.440000000000000000e+02,7.338086999999999804e-01
3.450000000000000000e+02,7.338086999999999804e-01
3.460000000000000000e+02,7.338086999999999804e-01
3.470000000000000000e+02,7.338086999999999804e-01
3.480000000000000000e+02,7.338086999999999804e-01
3.490000000000000000e+02,7.338086999999999804e-01
3.500000000000000000e+02,7.338086999999999804e-01
3.510000000000000000e+02,7.338086999999999804e-01
3.520000000000000000e+02,7.338086999999999804e-01
3.530000000000000000e+02,7.338086999999999804e-01
3.540000000000000000e+02,7.338086999999999804e-01
3.550000000000000000e+02,7.338086999999999804e-01
3.560000000000000000e+02,7.338086999999999804e-01
3.570000000000000000e+02,7.338086999999999804e-01
3.580000000000000000e+02,7.338086999999999804e-01
3.590000000000000000e+02,7.338086999999999804e-01
3.600000000000000000e+02,7.338086999999999804e-01
3.610000000000000000e+02,7.338086999999999804e-01
3.620000000000000000e+02,7.338086999999999804e-01
3.630000000000000000e+02,7.338086999999999804e-01
3.640000000000000000e+02,7.338086999999999804e-01
3.650000000000000000e+02,7.338086999999999804e-01
3.660000000000000000e+02,7.338086999999999804e-01
3.670000000000000000e+02,7.338086999999999804e-01
3.680000000000000000e+02,7.338086999999999804e-01
3.690000000000000000e+02,7.338086999999999804e-01
3.700000000000000000e+02,7.338086999999999804e-01
3.710000000000000000e+02,7.338086999999999804e-01
3.720000000000000000e+02,7.338086999999999804e-01
3.730000000000000000e+02,7.338086999999999804e-01
3.740000000000000000e+02,7.338086999999999804e-01
3.750000000000000000e+02,7.338086999999999804e-01
3.760000000000000000e+02,7.338086999999999804e-01
3.770000000000000000e+02,7.338086999999999804e-01
3.780000000000000000e+02,7.338086999999999804e-01
3.790000000000000000e+02,7.338086999999999804e-01
3.800000000000000000e+02,7.338086999999999804e-01
3.810000000000000000e+02,7.338086999999999804e-01
3.820000000000000000e+02,7.338086999999999804e-01
3.830000000000000000e+02,7.338086999999999804e-01
3.840000000000000000e+02,7.338086999999999804e-01
3.850000000000000000e+02,7.338086999999999804e-01
3.860000000000000000e+02,7.338086999999999804e-01
3.870000000000000000e+02,7.338086999999999804e-01
3.880000000000000000e+02,7.338086999999999804e-01
3.890000000000000000e+02,7.338086999999999804e-01
3.900000000000000000e+02,7.338086999999999804e-01
3.910000000000000000e+02,7.338086999999999804e-01
3.920000000000000000e+02,7.338086999999999804e-01
3.930000000000000000e+02,7.338086999999999804e-01
3.940000000000000000e+02,7.338086999999999804e-01
3.950000000000000000e+02,7.338086999999999804e-01
3.960000000000000000e+02,7.338086999999999804e-01
3.970000000000000000e+02,7.338086999999999804e-01
3.980000000000000000e+02,7.338086999999999804e-01
3.990000000000000000e+02,7.338086999999999804e-01
4.000000000000000000e+02,7.338086999999999804e-01
4.010000000000000000e+02,7.338086999999999804e-01
4.020000000000000000e+02,7.338086999999999804e-01
4.030000000000000000e+02,7.338086999999999804e-01
4.040000000000000000e+02,7.338086999999999804e-01
4.050000000000000000e+02,7.338086999999999804e-01
4.060000000000000000e+02,7.338086999999999804e-01
4.070000000000000000e+02,7.338086999999999804e-01
4.080000000000000000e+02,7.338086999999999804e-01
4.090000000000000000e+02,7.338086999999999804e-01
4.100000000000000000e+02,7.338086999999999804e-01
4.110000000000000000e+02,7.338086999999999804e-01
4.120000000000000000e+02,7.338086999999999804e-01
4.130000000000000000e+02,7.338086999999999804e-01
4.140000000000000000e+02,7.338086999999999804e-01
4.150000000000000000e+02,7.338086999999999804e-01
4.160000000000000000e+02,7.338086999999999804e-01
4.170000000000000000e+02,7.338086999999999804e-01
4.180000000000000000e+02,7.338086999999999804e-01
4.190000000000000000e+02,7.338086999999999804e-01
4.200000000000000000e+02,7.338086999999999804e-01
4.210000000000000000e+02,7.338086999999999804e-01
4.220000000000000000e+02,7.338086999999999804e-01
4.230000000000000000e+02,7.338086999999999804e-01
4.240000000000000000e+02,7.338086999999999804e-01
4.250000000000000000e+02,7.338086999999999804e-01
4.260000000000000000e+02,7.338086999999999804e-01
4.270000000000000000e+02,7.338086999999999804e-01
4.280000000000000000e+02,7.338086999999999804e-01
4.290000000000000000e+02,7.338086999999999804e-01
4.300000000000000000e+02,7.338086999999999804e-01
4.310000000000000000e+02,7.338086999999999804e-01
4.320000000000000000e+02,7.338086999999999804e-01
4.330000000000000000e+02,7.338086999999999804e-01
4.340000000000000000e+02,7.338086999999999804e-01
4.350000000000000000e+02,7.338086999999999804e-01
4.360000000000000000e+02,7.338086999999999804e-01
4.370000000000000000e+02,7.338086999999999804e-01
4.380000000000000000e+02,7.338086999999999804e-01
4.390000000000000000e+02,7.338086999999999804e-01
4.400000000000000000e+02,7.338086999999999804e-01
4.410000000000000000e+02,7.338086999999999804e-01
4.420000000000000000e+02,7.338086999999999804e-01
4.430000000000000000e+02,7.338086999999999804e-01
4.440000000000000000e+02,7.338086999999999804e-01
4.450000000000000000e+02,7.338086999999999804e-01
4.460000000000000000e+02,7.338086999999999804e-01
4.470000000000000000e+02,7.338086999999999804e-01
4.480000000000000000e+02,7.338086999999999804e-01
4.490000000000000000e+02,7.338086999999999804e-01
4.500000000000000000e+02,7.338086999999999804e-01
4.510000000000000000e+02,7.338086999999999804e-01
4.520000000000000000e+02,7.338086999999999804e-01
4.530000000000000000e+02,7.338086999999999804e-01
4.540000000000000000e+02,7.338086999999999804e-01
4.550000000000000000e+02,7.338086999999999804e-01
4.560000000000000000e+02,7.338086999999999804e-01
4.570000000000000000e+02,7.338086999999999804e-01
4.580000000000000000e+02,7.338086999999999804e-01
4.590000000000000000e+02,7.338086999999999804e-01
4.600000000000000000e+02,7.338086999999999804e-01
4.610000000000000000e+02,7.338086999999999804e-01
4.620000000000000000e+02,7.338086999999999804e-01
4.630000000000000000e+02,7.338086999999999804e-01
4.640000000000000000e+02,7.338086999999999804e-01
4.650000000000000000e+02,7.338086999999999804e-01
4.660000000000000000e+02,7.338086999999999804e-01
4.670000000000000000e+02,7.338086999999999804e-01
4.680000000000000000e+02,7.338086999999999804e-01
4.690000000000000000e+02,7.338086999999999804e-01
4.700000000000000000e+02,7.338086999999999804e-01
4.710000000000000000e+02,7.338086999999999804e-01
4.720000000000000000e+02,7.338086999999999804e-01
4.730000000000000000e+02,7.338086999999999804e-01
4.740000000000000000e+02,7.338086999999999804e-01
4.750000000000000000e+02,7.338086999999999804e-01
4.760000000000000000e+02,7.338086999999999804e-01
4.770000000000000000e+02,7.338086999999999804e-01
4.780000000000000000e+02,7.338086999999999804e-01
4.790000000000000000e+02,7.338086999999999804e-01
4.800000000000000000e+02,7.338086999999999804e-01
4.810000000000000000e+02,7.338086999999999804e-01
4.820000000000000000e+02,7.338086999999999804e-01
4.830000000000000000e+02,7.338086999999999804e-01
4.840000000000000000e+02,7.338086999999999804e-01
4.850000000000000000e+02,7.338086999999999804e-01
4.860000000000000000e+02,7.338086999999999804e-01
4.870000000000000000e+02,7.338086999999999804e-01
4.880000000000000000e+02,7.338086999999999804e-01
4.890000000000000000e+02,7.338086999999999804e-01
4.900000000000000000e+02,7.338086999999999804e-01
4.910000000000000000e+02,7.338086999999999804e-01
4.920000000000000000e+02,7.338086999999999804e-01
4.930000000000000000e+02,7.338086999999999804e-01
4.940000000000000000e+02,7.338086999999999804e-01
4.950000000000000000e+02,7.338086999999999804e-01
4.960000000000000000e+02,7.338086999999999804e-01
4.970000000000000000e+02,7.338086999999999804e-01
4.980000000000000000e+02,7.338086999999999804e-01
4.990000000000000000e+02,7.338086999999999804e-01
5.000000000000000000e+02,7.338086999999999804e-01
5.010000000000000000e+02,7.338086999999999804e-01
5.020000000000000000e+02,7.338086999999999804e-01
5.030000000000000000e+02,7.338086999999999804e-01
5.040000000000000000e+02,7.338086999999999804e-01
5.050000000000000000e+02,7.338086999999999804e-01
5.060000000000000000e+02,7.338086999999999804e-01
5.070000000000000000e+02,7.338086999999999804e-01
5.080000000000000000e+02,7.338086999999999804e-01
5.090000000000000000e+02,7.338086999999999804e-01
5.100000000000000000e+02,7.338086999999999804e-01
5.110000000000000000e+02,7.338086999999999804e-01
5.120000000000000000e+02,7.338086999999999804e-01
5.130000000000000000e+02,7.338086999999999804e-01
5.140000000000000000e+02,7.338086999999999804e-01
5.150000000000000000e+02,7.338086999999999804e-01
5.160000000000000000e+02,7.338086999999999804e-01
5.170000000000000000e+02,7.338086999999999804e-01
5.180000000000000000e+02,7.338086999999999804e-01
5.190000000000000000e+02,7.338086999999999804e-01
5.200000000000000000e+02,7.338086999999999804e-01
5.210000000000000000e+02,7.338086999999999804e-01
5.220000000000000000e+02,7.338086999999999804e-01
5.230000000000000000e+02,7.338086999999999804e-01
5.240000000000000000e+02,7.338086999999999804e-01
5.250000000000000000e+02,7.338086999999999804e-01
5.260000000000000000e+02,7.338086999999999804e-01
5.270000000000000000e+02,7.338086999999999804e-01
5.280000000000000000e+02,7.338086999999999804e-01
5.290000000000000000e+02,7.338086999999999804e-01
5.300000000000000000e+02,7.338086999999999804e-01
5.310000000000000000e+02,7.338086999999999804e-01
5.320000000000000000e+02,7.338086999999999804e-01
5.330000000000000000e+02,7.338086999999999804e-01
5.340000000000000000e+02,7.338086999999999804e-01
5.350000000000000000e+02,7.338086999999999804e-01
5.360000000000000000e+02,7.338086999999999804e-01
5.370000000000000000e+02,7.338086999999999804e-01
5.380000000000000000e+02,7.338086999999999804e-01
5.390000000000000000e+02,7.338086999999999804e-01
5.400000000000000000e+02,7.338086999999999804e-01
5.410000000000000000e+02,7.338086999999999804e-01
5.420000000000000000e+02,7.338086999999999804e-01
5.430000000000000000e+02,7.338086999999999804e-01
5.440000000000000000e+02,7.338086999999999804e-01
5.450000000000000000e+02,7.338086999999999804e-01
5.460000000000000000e+02,7.338086999999999804e-01
5.470000000000000000e+02,7.338086999999999804e-01
5.480000000000000000e+02,7.338086999999999804e-01
5.490000000000000000e+02,7.338086999999999804e-01
5.500000000000000000e+02,7.338086999999999804e-01
5.510000000000000000e+02,7.338086999999999804e-01
5.520000000000000000e+02,7.338086999999999804e-01
5.530000000000000000e+02,7.338086999999999804e-01
5.540000000000000000e+02,7.338086999999999804e-01
5.550000000000000000e+02,7.338086999999999804e-01
5.560000000000000000e+02,7.338086999999999804e-01
5.570000000000000000e+02,7.338086999999999804e-01
5.580000000000000000e+02,7.338086999999999804e-01
5.590000000000000000e+02,7.338086999999999804e-01
5.600000000000000000e+02,7.338086999999999804e-01
5.610000000000000000e+02,7.338086999999999804e-01
5.620000000000000000e+02,7.338086999999999804e-01
5.630000000000000000e+02,7.338086999999999804e-01
5.640000000000000000e+02,7.338086999999999804e-01
5.650000000000000000e+02,7.338086999999999804e-01
5.660000000000000000e+02,7.338086999999999804e-01
5.670000000000000000e+02,7.338086999999999804e-01
5.680000000000000000e+02,7.338086999999999804e-01
5.690000000000000000e+02,7.338086999999999804e-01
5.700000000000000000e+02,7.338086999999999804e-01
5.710000000000000000e+02,7.338086999999999804e-01
5.720000000000000000e+02,7.338086999999999804e-01
5.730000000000000000e+02,7.338086999999999804e-01
5.740000000000000000e+02,7.338086999999999804e-01
5.750000000000000000e+02,7.338086999999999804e-01
5.760000000000000000e+02,7.338086999999999804e-01
5.770000000000000000e+02,7.338086999999999804e-01
5.780000000000000000e+02,7.338086999999999804e-01
5.790000000000000000e+02,7.338086999999999804e-01
5.800000000000000000e+02,7.338086999999999804e-01
5.810000000000000000e+02,7.338086999999999804e-01
5.820000000000000000e+02,7.338086999999999804e-01
5.830000000000000000e+02,7.338086999999999804e-01
5.840000000000000000e+02,7.338086999999999804e-01
5.850000000000000000e+02,7.338086999999999804e-01
5.860000000000000000e+02,7.338086999999999804e-01
5.870000000000000000e+02,7.338086999999999804e-01
5.880000000000000000e+02,7.338086999999999804e-01
5.890000000000000000e+02,7.338086999999999804e-01
5.900000000000000000e+02,7.338086999999999804e-01
5.910000000000000000e+02,7.338086999999999804e-01
5.920000000000000000e+02,7.338086999999999804e-01
5.930000000000000000e+02,7.338086999999999804e-01
5.940000000000000000e+02,7.338086999999999804e-01
5.950000000000000000e+02,7.338086999999999804e-01
5.960000000000000000e+02,7.338086999999999804e-01
5.970000000000000000e+02,7.338086999999999804e-01
5.980000000000000000e+02,7.338086999999999804e-01
5.990000000000000000e+02,7.338086999999999804e-01