# Time [s], Temperature [C]
1.000000000000000000e+00,2.500000000000000000e+01
2.000000000000000000e+00,2.500000000000000000e+01
3.000000000000000000e+00,2.500000000000000000e+01
4.000000000000000000e+00,2.500000000000000000e+01
5.000000000000000000e+00,2.500000199999999850e+01
6.000000000000000000e+00,2.500000599999999906e+01
7.000000000000000000e+00,2.500002699999999933e+01
8.000000000000000000e+00,2.500009199999999865e+01
9.000000000000000000e+00,2.500026300000000035e+01
1.000000000000000000e+01,2.500066400000000044e+01
1.100000000000000000e+01,2.500149499999999847e+01
1.200000000000000000e+01,2.500305200000000028e+01
1.300000000000000000e+01,2.500573500000000138e+01
1.400000000000000000e+01,2.501004000000000005e+01
1.500000000000000000e+01,2.501654999999999873e+01
1.600000000000000000e+01,2.502590199999999854e+01
1.700000000000000000e+01,2.503877800000000065e+01
1.800000000000000000e+01,2.505587200000000081e+01
1.900000000000000000e+01,2.507787099999999825e+01
2.000000000000000000e+01,2.510544200000000004e+01
2.100000000000000000e+01,2.513921399999999906e+01
2.200000000000000000e+01,2.517976399999999870e+01
2.300000000000000000e+01,2.522762300000000124e+01
2.400000000000000000e+01,2.528326200000000057e+01
2.500000000000000000e+01,2.534709399999999846e+01
2.600000000000000000e+01,2.541947199999999896e+01
2.700000000000000000e+01,2.550068999999999875e+01
2.800000000000000000e+01,2.559099000000000146e+01
2.900000000000000000e+01,2.569056700000000149e+01
3.000000000000000000e+01,2.579956100000000063e+01
3.100000000000000000e+01,2.591807199999999867e+01
3.200000000000000000e+01,2.604615599999999986e+01
3.300000000000000000e+01,2.618384000000000000e+01
3.400000000000000000e+01,2.633111600000000152e+01
3.500000000000000000e+01,2.648793999999999826e+01
3.600000000000000000e+01,2.665425099999999858e+01
3.700000000000000000e+01,2.682996199999999831e+01
3.800000000000000000e+01,2.701496699999999862e+01
3.900000000000000000e+01,2.720914099999999891e+01
4.000000000000000000e+01,2.741235199999999850e+01
4.100000000000000000e+01,2.762444299999999942e+01
4.200000000000000000e+01,2.784525700000000015e+01
4.300000000000000000e+01,2.807462299999999900e+01
4.400000000000000000e+01,2.831236799999999931e+01
4.500000000000000000e+01,2.855830800000000025e+01
4.600000000000000000e+01,2.881225600000000142e+01
4.700000000000000000e+01,2.907402400000000142e+01
4.800000000000000000e+01,2.934341999999999828e+01
4.900000000000000000e+01,2.962025099999999966e+01
5.000000000000000000e+01,2.990432200000000051e+01
5.100000000000000000e+01,3.019543600000000083e+01
5.200000000000000000e+01,3.049341000000000079e+01
5.300000000000000000e+01,3.079804599999999937e+01
5.400000000000000000e+01,3.110915400000000020e+01
5.500000000000000000e+01,3.142654999999999887e+01
5.600000000000000000e+01,3.175003799999999998e+01
5.700000000000000000e+01,3.207944499999999977e+01
5.800000000000000000e+01,3.241459300000000354e+01
5.900000000000000000e+01,3.275529900000000083e+01
6.000000000000000000e+01,3.310138299999999845e+01
6.100000000000000000e+01,3.345268599999999992e+01
6.200000000000000000e+01,3.380903599999999898e+01
6.300000000000000000e+01,3.417026500000000055e+01
6.400000000000000000e+01,3.453622099999999762e+01
6.500000000000000000e+01,3.490674599999999828e+01
6.600000000000000000e+01,3.528168900000000008e+01
6.700000000000000000e+01,3.566089199999999693e+01
6.800000000000000000e+01,3.604421599999999870e+01
6.900000000000000000e+01,3.643151499999999743e+01
7.000000000000000000e+01,3.682265499999999747e+01
7.100000000000000000e+01,3.721749899999999656e+01
7.200000000000000000e+01,3.761591299999999904e+01
7.300000000000000000e+01,3.801777599999999779e+01
7.400000000000000000e+01,3.842295500000000175e+01
7.500000000000000000e+01,3.883133300000000077e+01
7.600000000000000000e+01,3.924279400000000351e+01
7.700000000000000000e+01,3.965721899999999778e+01
7.800000000000000000e+01,4.007450099999999793e+01
7.900000000000000000e+01,4.049453400000000158e+01
8.000000000000000000e+01,4.091720600000000019e+01
8.100000000000000000e+01,4.134242199999999912e+01
8.200000000000000000e+01,4.177008099999999757e+01
8.300000000000000000e+01,4.220008500000000140e+01
8.400000000000000000e+01,4.263233600000000223e+01
8.500000000000000000e+01,4.306674199999999786e+01
8.600000000000000000e+01,4.350321600000000188e+01
8.700000000000000000e+01,4.394167300000000154e+01
8.800000000000000000e+01,4.438203399999999732e+01
8.900000000000000000e+01,4.482421899999999937e+01
9.000000000000000000e+01,4.526814300000000202e+01
9.100000000000000000e+01,4.571373700000000184e+01
9.200000000000000000e+01,4.616092299999999682e+01
9.300000000000000000e+01,4.660963399999999979e+01
9.400000000000000000e+01,4.705979200000000162e+01
9.500000000000000000e+01,4.751132599999999684e+01
9.600000000000000000e+01,4.796417999999999893e+01
9.700000000000000000e+01,4.841828900000000147e+01
9.800000000000000000e+01,4.887358900000000261e+01
9.900000000000000000e+01,4.933002900000000324e+01
1.000000000000000000e+02,4.978753999999999991e+01
1.010000000000000000e+02,5.024607499999999760e+01
1.020000000000000000e+02,5.070557000000000158e+01
1.030000000000000000e+02,5.116597000000000151e+01
1.040000000000000000e+02,5.162723499999999888e+01
1.050000000000000000e+02,5.208930600000000055e+01
1.060000000000000000e+02,5.255214300000000094e+01
1.070000000000000000e+02,5.301570499999999697e+01
1.080000000000000000e+02,5.347992299999999943e+01
1.090000000000000000e+02,5.394477100000000291e+01
1.100000000000000000e+02,5.441019800000000117e+01
1.110000000000000000e+02,5.487617099999999937e+01
1.120000000000000000e+02,5.534264399999999995e+01
1.130000000000000000e+02,5.580958900000000256e+01
1.140000000000000000e+02,5.627695099999999684e+01
1.150000000000000000e+02,5.674469799999999964e+01
1.160000000000000000e+02,5.721279899999999685e+01
1.170000000000000000e+02,5.768122100000000074e+01
1.180000000000000000e+02,5.814992900000000020e+01
1.190000000000000000e+02,5.861889999999999645e+01
1.200000000000000000e+02,5.908808100000000252e+01
1.210000000000000000e+02,5.955745699999999943e+01
1.220000000000000000e+02,6.002699299999999738e+01
1.230000000000000000e+02,6.049666599999999761e+01
1.240000000000000000e+02,6.096645000000000181e+01
1.250000000000000000e+02,6.143631400000000298e+01
1.260000000000000000e+02,6.190623099999999823e+01
1.270000000000000000e+02,6.237617099999999937e+01
1.280000000000000000e+02,6.284611900000000162e+01
1.290000000000000000e+02,6.331604800000000211e+01
1.300000000000000000e+02,6.378593800000000158e+01
1.310000000000000000e+02,6.425576800000000333e+01
1.320000000000000000e+02,6.472550200000000586e+01
1.330000000000000000e+02,6.519513700000000256e+01
1.340000000000000000e+02,6.566464200000000062e+01
1.350000000000000000e+02,6.613400300000000698e+01
1.360000000000000000e+02,6.660320299999999349e+01
1.370000000000000000e+02,6.707222000000000151e+01
1.380000000000000000e+02,6.754103100000000381e+01
1.390000000000000000e+02,6.800962800000000641e+01
1.400000000000000000e+02,6.847798899999999378e+01
1.410000000000000000e+02,6.894610600000000034e+01
1.420000000000000000e+02,6.941395599999999888e+01
1.430000000000000000e+02,6.988152300000000139e+01
1.440000000000000000e+02,7.034879300000000057e+01
1.450000000000000000e+02,7.081574999999999420e+01
1.460000000000000000e+02,7.128238699999999994e+01
1.470000000000000000e+02,7.174869499999999789e+01
1.480000000000000000e+02,7.221465299999999843e+01
1.490000000000000000e+02,7.268024400000000185e+01
1.500000000000000000e+02,7.314545400000000086e+01
1.510000000000000000e+02,7.361028299999999547e+01
1.520000000000000000e+02,7.407471499999999764e+01
1.530000000000000000e+02,7.453874199999999917e+01
1.540000000000000000e+02,7.500235700000000350e+01
1.550000000000000000e+02,7.546553799999999512e+01
1.560000000000000000e+02,7.592827599999999677e+01
1.570000000000000000e+02,7.639056399999999769e+01
1.580000000000000000e+02,7.685240199999999788e+01
1.590000000000000000e+02,7.731377399999999511e+01
1.600000000000000000e+02,7.777466599999999630e+01
1.610000000000000000e+02,7.823508499999999799e+01
1.620000000000000000e+02,7.869500700000000393e+01
1.630000000000000000e+02,7.915441900000000430e+01
1.640000000000000000e+02,7.961333500000000640e+01
1.650000000000000000e+02,8.007173199999999724e+01
1.660000000000000000e+02,8.052961000000000524e+01
1.670000000000000000e+02,8.098696099999999376e+01
1.680000000000000000e+02,8.144377900000000636e+01
1.690000000000000000e+02,8.190005499999999472e+01
1.700000000000000000e+02,8.235577399999999670e+01
1.710000000000000000e+02,8.281093599999999810e+01
1.720000000000000000e+02,8.326554899999999293e+01
1.730000000000000000e+02,8.371959699999999316e+01
1.740000000000000000e+02,8.417307300000000225e+01
1.750000000000000000e+02,8.462597700000000600e+01
1.760000000000000000e+02,8.507829300000000217e+01
1.770000000000000000e+02,8.553002200000000244e+01
1.780000000000000000e+02,8.598116299999999512e+01
1.790000000000000000e+02,8.643170899999999790e+01
1.800000000000000000e+02,8.688165300000000002e+01
1.810000000000000000e+02,8.733100100000000054e+01
1.820000000000000000e+02,8.777973900000000640e+01
1.830000000000000000e+02,8.822786700000000337e+01
1.840000000000000000e+02,8.867537699999999745e+01
1.850000000000000000e+02,8.912226900000000285e+01
1.860000000000000000e+02,8.956852700000000311e+01
1.870000000000000000e+02,9.001416799999999796e+01
1.880000000000000000e+02,9.045917500000000189e+01
1.890000000000000000e+02,9.090355700000000638e+01
1.900000000000000000e+02,9.134729799999999500e+01
1.910000000000000000e+02,9.179040500000000691e+01
1.920000000000000000e+02,9.223287200000000041e+01
1.930000000000000000e+02,9.267468999999999824e+01
1.940000000000000000e+02,9.311585200000000384e+01
1.950000000000000000e+02,9.355637400000000525e+01
1.960000000000000000e+02,9.399623900000000276e+01
1.970000000000000000e+02,9.443544799999999384e+01
1.980000000000000000e+02,9.487400800000000345e+01
1.990000000000000000e+02,9.531190499999999588e+01
2.000000000000000000e+02,9.574914599999999609e+01
2.010000000000000000e+02,9.618572199999999839e+01
2.020000000000000000e+02,9.662163499999999772e+01
2.030000000000000000e+02,9.705687700000000007e+01
2.040000000000000000e+02,9.749144699999999375e+01
2.050000000000000000e+02,9.792534600000000466e+01
2.060000000000000000e+02,9.835857400000000439e+01
2.070000000000000000e+02,9.879112999999999545e+01
2.080000000000000000e+02,9.922300699999999551e+01
2.090000000000000000e+02,9.965421299999999860e+01
2.100000000000000000e+02,1.000847399999999965e+02
2.110000000000000000e+02,1.005145899999999983e+02
2.120000000000000000e+02,1.009437599999999975e+02
2.130000000000000000e+02,1.013722499999999940e+02
2.140000000000000000e+02,1.018000600000000020e+02
2.150000000000000000e+02,1.022271800000000042e+02
2.160000000000000000e+02,1.026536200000000036e+02
2.170000000000000000e+02,1.030793599999999941e+02
2.180000000000000000e+02,1.035044199999999961e+02
2.190000000000000000e+02,1.039287900000000064e+02
2.200000000000000000e+02,1.043524699999999967e+02
2.210000000000000000e+02,1.047754599999999954e+02
2.220000000000000000e+02,1.051977600000000024e+02
2.230000000000000000e+02,1.056193800000000067e+02
2.240000000000000000e+02,1.060403000000000020e+02
2.250000000000000000e+02,1.064605300000000057e+02
2.260000000000000000e+02,1.068800700000000035e+02
2.270000000000000000e+02,1.072989000000000033e+02
2.280000000000000000e+02,1.077170600000000036e+02
2.290000000000000000e+02,1.081345100000000059e+02
2.300000000000000000e+02,1.085512800000000055e+02
2.310000000000000000e+02,1.089673499999999962e+02
2.320000000000000000e+02,1.093827299999999951e+02
2.330000000000000000e+02,1.097974099999999993e+02
2.340000000000000000e+02,1.102113999999999976e+02
2.350000000000000000e+02,1.106246900000000011e+02
2.360000000000000000e+02,1.110372799999999955e+02
2.370000000000000000e+02,1.114491799999999984e+02
2.380000000000000000e+02,1.118603700000000032e+02
2.390000000000000000e+02,1.122708700000000022e+02
2.400000000000000000e+02,1.126806600000000032e+02
2.410000000000000000e+02,1.130897599999999983e+02
2.420000000000000000e+02,1.134981599999999986e+02
2.430000000000000000e+02,1.139058600000000041e+02
2.440000000000000000e+02,1.143128600000000006e+02
2.450000000000000000e+02,1.147191600000000022e+02
2.460000000000000000e+02,1.151247699999999980e+02
2.470000000000000000e+02,1.155296799999999990e+02
2.480000000000000000e+02,1.159338800000000020e+02
2.490000000000000000e+02,1.163373899999999992e+02
2.500000000000000000e+02,1.167402100000000047e+02
2.510000000000000000e+02,1.171423300000000012e+02
2.520000000000000000e+02,1.175437500000000028e+02
2.530000000000000000e+02,1.179444699999999955e+02
2.540000000000000000e+02,1.183444899999999933e+02
2.550000000000000000e+02,1.187438099999999963e+02
2.560000000000000000e+02,1.191424399999999935e+02
2.570000000000000000e+02,1.195403699999999958e+02
2.580000000000000000e+02,1.199376100000000065e+02
2.590000000000000000e+02,1.203341499999999940e+02
2.600000000000000000e+02,1.207300000000000040e+02
2.610000000000000000e+02,1.211251400000000018e+02
2.620000000000000000e+02,1.215195899999999938e+02
2.630000000000000000e+02,1.219133499999999941e+02
2.640000000000000000e+02,1.223063999999999965e+02
2.650000000000000000e+02,1.226987699999999961e+02
2.660000000000000000e+02,1.230904299999999978e+02
2.670000000000000000e+02,1.234814099999999968e+02
2.680000000000000000e+02,1.238716900000000010e+02
2.690000000000000000e+02,1.242612799999999993e+02
2.700000000000000000e+02,1.246501700000000028e+02
2.710000000000000000e+02,1.250383700000000005e+02
2.720000000000000000e+02,1.254258700000000033e+02
2.730000000000000000e+02,1.258126900000000035e+02
2.740000000000000000e+02,1.261988099999999946e+02
2.750000000000000000e+02,1.265842399999999941e+02
2.760000000000000000e+02,1.269689900000000051e+02
2.770000000000000000e+02,1.273530399999999929e+02
2.780000000000000000e+02,1.277364100000000064e+02
2.790000000000000000e+02,1.281190799999999967e+02
2.800000000000000000e+02,1.285010699999999986e+02
2.810000000000000000e+02,1.288823700000000088e+02
2.820000000000000000e+02,1.292629699999999957e+02
2.830000000000000000e+02,1.296428799999999910e+02
2.840000000000000000e+02,1.300221300000000042e+02
2.850000000000000000e+02,1.304006699999999910e+02
2.860000000000000000e+02,1.307785199999999861e+02
2.870000000000000000e+02,1.311556899999999928e+02
2.880000000000000000e+02,1.315321700000000078e+02
2.890000000000000000e+02,1.319079600000000028e+02
2.900000000000000000e+02,1.322830800000000124e+02
2.910000000000000000e+02,1.326574999999999989e+02
2.920000000000000000e+02,1.330312500000000000e+02
2.930000000000000000e+02,1.334043000000000063e+02
2.940000000000000000e+02,1.337766699999999958e+02
2.950000000000000000e+02,1.341483800000000031e+02
2.960000000000000000e+02,1.345193899999999871e+02
2.970000000000000000e+02,1.348897399999999891e+02
2.980000000000000000e+02,1.352593799999999931e+02
2.990000000000000000e+02,1.356283699999999897e+02
3.000000000000000000e+02,1.359966699999999946e+02
3.010000000000000000e+02,1.363642900000000111e+02
3.020000000000000000e+02,1.367312200000000075e+02
3.030000000000000000e+02,1.370974899999999934e+02
3.040000000000000000e+02,1.374630600000000129e+02
3.050000000000000000e+02,1.378279699999999934e+02
3.060000000000000000e+02,1.381922000000000139e+02
3.070000000000000000e+02,1.385557599999999923e+02
3.080000000000000000e+02,1.389186400000000106e+02
3.090000000000000000e+02,1.392808499999999867e+02
3.100000000000000000e+02,1.396424000000000092e+02
3.110000000000000000e+02,1.400032699999999863e+02
3.120000000000000000e+02,1.403634500000000003e+02
3.130000000000000000e+02,1.407229800000000068e+02
3.140000000000000000e+02,1.410818199999999933e+02
3.150000000000000000e+02,1.414399999999999977e+02
3.160000000000000000e+02,1.417975000000000136e+02
3.170000000000000000e+02,1.421543399999999906e+02
3.180000000000000000e+02,1.425105299999999886e+02
3.190000000000000000e+02,1.428660299999999950e+02
3.200000000000000000e+02,1.432208699999999908e+02
3.210000000000000000e+02,1.435750400000000013e+02
3.220000000000000000e+02,1.439285399999999981e+02
3.230000000000000000e+02,1.442813899999999876e+02
3.240000000000000000e+02,1.446335599999999886e+02
3.250000000000000000e+02,1.449850800000000106e+02
3.260000000000000000e+02,1.453359199999999873e+02
3.270000000000000000e+02,1.456861100000000135e+02
3.280000000000000000e+02,1.460356400000000008e+02
3.290000000000000000e+02,1.463845100000000059e+02
3.300000000000000000e+02,1.467327099999999973e+02
3.310000000000000000e+02,1.470802500000000066e+02
3.320000000000000000e+02,1.474271400000000085e+02
3.330000000000000000e+02,1.477733599999999967e+02
3.340000000000000000e+02,1.481189300000000060e+02
3.350000000000000000e+02,1.484638500000000079e+02
3.360000000000000000e+02,1.488081099999999992e+02
3.370000000000000000e+02,1.491517200000000116e+02
3.380000000000000000e+02,1.494946600000000103e+02
3.390000000000000000e+02,1.498369399999999985e+02
3.400000000000000000e+02,1.501785900000000140e+02
3.410000000000000000e+02,1.505195799999999906e+02
3.420000000000000000e+02,1.508599100000000135e+02
3.430000000000000000e+02,1.511995799999999974e+02
3.440000000000000000e+02,1.515386200000000088e+02
3.450000000000000000e+02,1.518770000000000095e+02
3.460000000000000000e+02,1.522147400000000061e+02
3.470000000000000000e+02,1.525518199999999922e+02
3.480000000000000000e+02,1.528882600000000025e+02
3.490000000000000000e+02,1.532240400000000022e+02
3.500000000000000000e+02,1.535591900000000010e+02
3.510000000000000000e+02,1.538936899999999923e+02
3.520000000000000000e+02,1.542275400000000047e+02
3.530000000000000000e+02,1.545607500000000130e+02
3.540000000000000000e+02,1.548933100000000138e+02
3.550000000000000000e+02,1.552252300000000105e+02
3.560000000000000000e+02,1.555565200000000061e+02
3.570000000000000000e+02,1.558871599999999944e+02
3.580000000000000000e+02,1.562171600000000069e+02
3.590000000000000000e+02,1.565465199999999868e+02
3.600000000000000000e+02,1.568752399999999909e+02
3.610000000000000000e+02,1.572033199999999908e+02
3.620000000000000000e+02,1.575307599999999866e+02
3.630000000000000000e+02,1.578575700000000097e+02
3.640000000000000000e+02,1.581837500000000034e+02
3.650000000000000000e+02,1.585092799999999897e+02
3.660000000000000000e+02,1.588341800000000035e+02
3.670000000000000000e+02,1.591584499999999878e+02
3.680000000000000000e+02,1.594820899999999995e+02
3.690000000000000000e+02,1.598050800000000038e+02
3.700000000000000000e+02,1.601274600000000135e+02
3.710000000000000000e+02,1.604491899999999873e+02
3.720000000000000000e+02,1.607703099999999949e+02
3.730000000000000000e+02,1.610907899999999984e+02
3.740000000000000000e+02,1.614106299999999976e+02
3.750000000000000000e+02,1.617298600000000022e+02
3.760000000000000000e+02,1.620484500000000025e+02
3.770000000000000000e+02,1.623664200000000051e+02
3.780000000000000000e+02,1.626837600000000066e+02
3.790000000000000000e+02,1.630004900000000134e+02
3.800000000000000000e+02,1.633165700000000129e+02
3.810000000000000000e+02,1.636320499999999925e+02
3.820000000000000000e+02,1.639468999999999994e+02
3.830000000000000000e+02,1.642611200000000053e+02
3.840000000000000000e+02,1.645747200000000134e+02
3.850000000000000000e+02,1.648877099999999984e+02
3.860000000000000000e+02,1.652000700000000109e+02
3.870000000000000000e+02,1.655118300000000033e+02
3.880000000000000000e+02,1.658229499999999916e+02
3.890000000000000000e+02,1.661334699999999884e+02
3.900000000000000000e+02,1.664433600000000126e+02
3.910000000000000000e+02,1.667526400000000137e+02
3.920000000000000000e+02,1.670613099999999918e+02
3.930000000000000000e+02,1.673693499999999972e+02
3.940000000000000000e+02,1.676767900000000111e+02
3.950000000000000000e+02,1.679836300000000051e+02
3.960000000000000000e+02,1.682898299999999949e+02
3.970000000000000000e+02,1.685954299999999932e+02
3.980000000000000000e+02,1.689004199999999969e+02
3.990000000000000000e+02,1.692048000000000059e+02
4.000000000000000000e+02,1.695085799999999949e+02
4.010000000000000000e+02,1.698117499999999893e+02
4.020000000000000000e+02,1.701142999999999859e+02
4.030000000000000000e+02,1.704162399999999877e+02
4.040000000000000000e+02,1.707175900000000013e+02
4.050000000000000000e+02,1.710183399999999949e+02
4.060000000000000000e+02,1.713184699999999907e+02
4.070000000000000000e+02,1.716180099999999982e+02
4.080000000000000000e+02,1.719169300000000078e+02
4.090000000000000000e+02,1.722152700000000038e+02
4.100000000000000000e+02,1.725129900000000021e+02
4.110000000000000000e+02,1.728101200000000119e+02
4.120000000000000000e+02,1.731066399999999987e+02
4.130000000000000000e+02,1.734025699999999972e+02
4.140000000000000000e+02,1.736979100000000074e+02
4.150000000000000000e+02,1.739926499999999976e+02
4.160000000000000000e+02,1.742867699999999900e+02
4.170000000000000000e+02,1.745803200000000004e+02
4.180000000000000000e+02,1.748732799999999941e+02
4.190000000000000000e+02,1.751656199999999899e+02
4.200000000000000000e+02,1.754573800000000006e+02
4.210000000000000000e+02,1.757485499999999945e+02
4.220000000000000000e+02,1.760391199999999969e+02
4.230000000000000000e+02,1.763291199999999890e+02
4.240000000000000000e+02,1.766185199999999895e+02
4.250000000000000000e+02,1.769073199999999986e+02
4.260000000000000000e+02,1.771955299999999909e+02
4.270000000000000000e+02,1.774831499999999949e+02
4.280000000000000000e+02,1.777701999999999884e+02
4.290000000000000000e+02,1.780566599999999937e+02
4.300000000000000000e+02,1.783425300000000107e+02
4.310000000000000000e+02,1.786278200000000140e+02
4.320000000000000000e+02,1.789125200000000007e+02
4.330000000000000000e+02,1.791966400000000021e+02
4.340000000000000000e+02,1.794801799999999901e+02
4.350000000000000000e+02,1.797631399999999928e+02
4.360000000000000000e+02,1.800455000000000041e+02
4.370000000000000000e+02,1.803273000000000081e+02
4.380000000000000000e+02,1.806085199999999986e+02
4.390000000000000000e+02,1.808891600000000039e+02
4.400000000000000000e+02,1.811692199999999957e+02
4.410000000000000000e+02,1.814487000000000023e+02
4.420000000000000000e+02,1.817276200000000017e+02
4.430000000000000000e+02,1.820059500000000128e+02
4.440000000000000000e+02,1.822837100000000135e+02
4.450000000000000000e+02,1.825608799999999974e+02
4.460000000000000000e+02,1.828375100000000089e+02
4.470000000000000000e+02,1.831135400000000004e+02
4.480000000000000000e+02,1.833890100000000132e+02
4.490000000000000000e+02,1.836639099999999871e+02
4.500000000000000000e+02,1.839382300000000043e+02
4.510000000000000000e+02,1.842120099999999923e+02
4.520000000000000000e+02,1.844851800000000139e+02
4.530000000000000000e+02,1.847578100000000063e+02
4.540000000000000000e+02,1.850298799999999915e+02
4.550000000000000000e+02,1.853013599999999883e+02
4.560000000000000000e+02,1.855723000000000127e+02
4.570000000000000000e+02,1.858426499999999919e+02
4.580000000000000000e+02,1.861124599999999987e+02
4.590000000000000000e+02,1.863816999999999950e+02
4.600000000000000000e+02,1.866503800000000126e+02
4.610000000000000000e+02,1.869184899999999914e+02
4.620000000000000000e+02,1.871860399999999913e+02
4.630000000000000000e+02,1.874530300000000125e+02
4.640000000000000000e+02,1.877194700000000012e+02
4.650000000000000000e+02,1.879853500000000111e+02
4.660000000000000000e+02,1.882506700000000137e+02
4.670000000000000000e+02,1.885154400000000123e+02
4.680000000000000000e+02,1.887796500000000037e+02
4.690000000000000000e+02,1.890433199999999943e+02
4.700000000000000000e+02,1.893064099999999996e+02
4.710000000000000000e+02,1.895689700000000073e+02
4.720000000000000000e+02,1.898309600000000046e+02
4.730000000000000000e+02,1.900924100000000010e+02
4.740000000000000000e+02,1.903532999999999902e+02
4.750000000000000000e+02,1.906136500000000069e+02
4.760000000000000000e+02,1.908734399999999880e+02
4.770000000000000000e+02,1.911326899999999966e+02
4.780000000000000000e+02,1.913913900000000012e+02
4.790000000000000000e+02,1.916495500000000050e+02
4.800000000000000000e+02,1.919071700000000078e+02
4.810000000000000000e+02,1.921642200000000003e+02
4.820000000000000000e+02,1.924207499999999982e+02
4.830000000000000000e+02,1.926767100000000141e+02
4.840000000000000000e+02,1.929321400000000040e+02
4.850000000000000000e+02,1.931870399999999961e+02
4.860000000000000000e+02,1.934413900000000126e+02
4.870000000000000000e+02,1.936951899999999966e+02
4.880000000000000000e+02,1.939484699999999862e+02
4.890000000000000000e+02,1.942012000000000000e+02
4.900000000000000000e+02,1.944533800000000099e+02
4.910000000000000000e+02,1.947050500000000000e+02
4.920000000000000000e+02,1.949561600000000112e+02
4.930000000000000000e+02,1.952067600000000027e+02
4.940000000000000000e+02,1.954567999999999870e+02
4.950000000000000000e+02,1.957063100000000020e+02
4.960000000000000000e+02,1.959552899999999909e+02
4.970000000000000000e+02,1.962037500000000136e+02
4.980000000000000000e+02,1.964516600000000039e+02
4.990000000000000000e+02,1.966990499999999997e+02
5.000000000000000000e+02,1.969459099999999978e+02
5.010000000000000000e+02,1.971922299999999950e+02
5.020000000000000000e+02,1.974380299999999977e+02
5.030000000000000000e+02,1.976833000000000027e+02
5.040000000000000000e+02,1.979280400000000100e+02
5.050000000000000000e+02,1.981722599999999943e+02
5.060000000000000000e+02,1.984159500000000094e+02
5.070000000000000000e+02,1.986591300000000047e+02
5.080000000000000000e+02,1.989017599999999959e+02
5.090000000000000000e+02,1.991438899999999990e+02
5.100000000000000000e+02,1.993854800000000012e+02
5.110000000000000000e+02,1.996265699999999867e+02
5.120000000000000000e+02,1.998671300000000031e+02
5.130000000000000000e+02,2.001071599999999933e+02
5.140000000000000000e+02,2.003466799999999921e+02
5.150000000000000000e+02,2.005856799999999964e+02
5.160000000000000000e+02,2.008241600000000062e+02
5.170000000000000000e+02,2.010621299999999962e+02
5.180000000000000000e+02,2.012995799999999917e+02
5.190000000000000000e+02,2.015365099999999927e+02
5.200000000000000000e+02,2.017729300000000023e+02
5.210000000000000000e+02,2.020088499999999954e+02
5.220000000000000000e+02,2.022442299999999875e+02
5.230000000000000000e+02,2.024791299999999978e+02
5.240000000000000000e+02,2.027134900000000073e+02
5.250000000000000000e+02,2.029473600000000033e+02
5.260000000000000000e+02,2.031807100000000048e+02
5.270000000000000000e+02,2.034135400000000118e+02
5.280000000000000000e+02,2.036458900000000085e+02
5.290000000000000000e+02,2.038777200000000107e+02
5.300000000000000000e+02,2.041090199999999868e+02
5.310000000000000000e+02,2.043398400000000095e+02
5.320000000000000000e+02,2.045701599999999871e+02
5.330000000000000000e+02,2.047999700000000018e+02
5.340000000000000000e+02,2.050292699999999968e+02
5.350000000000000000e+02,2.052580700000000036e+02
5.360000000000000000e+02,2.054863699999999938e+02
5.370000000000000000e+02,2.057141699999999958e+02
5.380000000000000000e+02,2.059414700000000096e+02
5.390000000000000000e+02,2.061682600000000036e+02
5.400000000000000000e+02,2.063945600000000127e+02
5.410000000000000000e+02,2.066203800000000115e+02
5.420000000000000000e+02,2.068456700000000126e+02
5.430000000000000000e+02,2.070705000000000098e+02
5.440000000000000000e+02,2.072948000000000093e+02
5.450000000000000000e+02,2.075186199999999985e+02
5.460000000000000000e+02,2.077419399999999996e+02
5.470000000000000000e+02,2.079647799999999904e+02
5.480000000000000000e+02,2.081871299999999962e+02
5.490000000000000000e+02,2.084089800000000139e+02
5.500000000000000000e+02,2.086303399999999897e+02
5.510000000000000000e+02,2.088512100000000089e+02
5.520000000000000000e+02,2.090715899999999863e+02
5.530000000000000000e+02,2.092914900000000102e+02
5.540000000000000000e+02,2.095108899999999892e+02
5.550000000000000000e+02,2.097298099999999863e+02
5.560000000000000000e+02,2.099482399999999984e+02
5.570000000000000000e+02,2.101661799999999971e+02
5.580000000000000000e+02,2.103836499999999887e+02
5.590000000000000000e+02,2.106006500000000017e+02
5.600000000000000000e+02,2.108171399999999949e+02
5.610000000000000000e+02,2.110331600000000094e+02
5.620000000000000000e+02,2.112486900000000105e+02
5.630000000000000000e+02,2.114637500000000045e+02
5.640000000000000000e+02,2.116783299999999883e+02
5.650000000000000000e+02,2.118924299999999903e+02
5.660000000000000000e+02,2.121060300000000041e+02
5.670000000000000000e+02,2.123191799999999887e+02
5.680000000000000000e+02,2.125318499999999915e+02
5.690000000000000000e+02,2.127440300000000093e+02
5.700000000000000000e+02,2.129557499999999948e+02
5.710000000000000000e+02,2.131669899999999984e+02
5.720000000000000000e+02,2.133777599999999950e+02
5.730000000000000000e+02,2.135880699999999877e+02
5.740000000000000000e+02,2.137978999999999985e+02
5.750000000000000000e+02,2.140072499999999991e+02
5.760000000000000000e+02,2.142161399999999958e+02
5.770000000000000000e+02,2.144245600000000138e+02
5.780000000000000000e+02,2.146325099999999964e+02
5.790000000000000000e+02,2.148400000000000034e+02
5.800000000000000000e+02,2.150470100000000002e+02
5.810000000000000000e+02,2.152535599999999931e+02
5.820000000000000000e+02,2.154596400000000074e+02
5.830000000000000000e+02,2.156652699999999925e+02
5.840000000000000000e+02,2.158704199999999958e+02
5.850000000000000000e+02,2.160751199999999983e+02
5.860000000000000000e+02,2.162793599999999969e+02
5.870000000000000000e+02,2.164831200000000138e+02
5.880000000000000000e+02,2.166864300000000014e+02
5.890000000000000000e+02,2.168892999999999915e+02
5.900000000000000000e+02,2.170916899999999998e+02
5.910000000000000000e+02,2.172936200000000042e+02
5.920000000000000000e+02,2.174951000000000079e+02
5.930000000000000000e+02,2.176961200000000076e+02
5.940000000000000000e+02,2.178967000000000098e+02
5.950000000000000000e+02,2.180968200000000081e+02
5.960000000000000000e+02,2.182964800000000025e+02
5.970000000000000000e+02,2.184956799999999930e+02
5.980000000000000000e+02,2.186944399999999860e+02
5.990000000000000000e+02,2.188927500000000066e+02