# Time [s], Temperature [C]
1.000000000000000000e+00,2.500000000000000000e+01
2.000000000000000000e+00,2.500000000000000000e+01
3.000000000000000000e+00,2.500000000000000000e+01
4.000000000000000000e+00,2.500000000000000000e+01
5.000000000000000000e+00,2.500000599999999906e+01
6.000000000000000000e+00,2.500003399999999942e+01
7.000000000000000000e+00,2.500014499999999984e+01
8.000000000000000000e+00,2.500049800000000033e+01
9.000000000000000000e+00,2.500145499999999998e+01
1.000000000000000000e+01,2.500370799999999960e+01
1.100000000000000000e+01,2.500841700000000145e+01
1.200000000000000000e+01,2.501731699999999847e+01
1.300000000000000000e+01,2.503275700000000015e+01
1.400000000000000000e+01,2.505768199999999979e+01
1.500000000000000000e+01,2.509554500000000132e+01
1.600000000000000000e+01,2.515018299999999840e+01
1.700000000000000000e+01,2.522567199999999943e+01
1.800000000000000000e+01,2.532619100000000145e+01
1.900000000000000000e+01,2.545589100000000116e+01
2.000000000000000000e+01,2.561878199999999950e+01
2.100000000000000000e+01,2.581865900000000025e+01
2.200000000000000000e+01,2.605903400000000047e+01
2.300000000000000000e+01,2.634309000000000012e+01
2.400000000000000000e+01,2.667364699999999900e+01
2.500000000000000000e+01,2.705315600000000131e+01
2.600000000000000000e+01,2.748372099999999918e+01
2.700000000000000000e+01,2.796705400000000097e+01
2.800000000000000000e+01,2.850452599999999848e+01
2.900000000000000000e+01,2.909719499999999925e+01
3.000000000000000000e+01,2.974578699999999998e+01
3.100000000000000000e+01,3.045076600000000155e+01
3.200000000000000000e+01,3.121233000000000146e+01
3.300000000000000000e+01,3.203044500000000028e+01
3.400000000000000000e+01,3.290488799999999969e+01
3.500000000000000000e+01,3.383524700000000252e+01
3.600000000000000000e+01,3.482097600000000170e+01
3.700000000000000000e+01,3.586133600000000143e+01
3.800000000000000000e+01,3.695553600000000216e+01
3.900000000000000000e+01,3.810263400000000189e+01
4.000000000000000000e+01,3.930160899999999913e+01
4.100000000000000000e+01,4.055136900000000111e+01
4.200000000000000000e+01,4.185074600000000089e+01
4.300000000000000000e+01,4.319855100000000192e+01
4.400000000000000000e+01,4.459347499999999798e+01
4.500000000000000000e+01,4.603426400000000029e+01
4.600000000000000000e+01,4.751955399999999941e+01
4.700000000000000000e+01,4.904801199999999994e+01
4.800000000000000000e+01,5.061824800000000124e+01
4.900000000000000000e+01,5.222886299999999693e+01
5.000000000000000000e+01,5.387847099999999756e+01
5.100000000000000000e+01,5.556565899999999658e+01
5.200000000000000000e+01,5.728902399999999773e+01
5.300000000000000000e+01,5.904713399999999979e+01
5.400000000000000000e+01,6.083863800000000310e+01
5.500000000000000000e+01,6.266204499999999911e+01
5.600000000000000000e+01,6.451601399999999842e+01
5.700000000000000000e+01,6.639913199999999449e+01
5.800000000000000000e+01,6.831007400000000018e+01
5.900000000000000000e+01,7.024745199999999556e+01
6.000000000000000000e+01,7.220992999999999995e+01
6.100000000000000000e+01,7.419618199999999320e+01
6.200000000000000000e+01,7.620490999999999815e+01
6.300000000000000000e+01,7.823486300000000426e+01
6.400000000000000000e+01,8.028476700000000221e+01
6.500000000000000000e+01,8.235343199999999797e+01
6.600000000000000000e+01,8.443968200000000479e+01
6.700000000000000000e+01,8.654240400000000477e+01
6.800000000000000000e+01,8.866039999999999566e+01
6.900000000000000000e+01,9.079264799999999980e+01
7.000000000000000000e+01,9.293812599999999691e+01
7.100000000000000000e+01,9.509580200000000616e+01
7.200000000000000000e+01,9.726476300000000208e+01
7.300000000000000000e+01,9.944402300000000139e+01
7.400000000000000000e+01,1.016327399999999983e+02
7.500000000000000000e+01,1.038301400000000001e+02
7.600000000000000000e+01,1.060353700000000003e+02
7.700000000000000000e+01,1.082477099999999979e+02
7.800000000000000000e+01,1.104664800000000042e+02
7.900000000000000000e+01,1.126909100000000024e+02
8.000000000000000000e+01,1.149204799999999977e+02
8.100000000000000000e+01,1.171544600000000003e+02
8.200000000000000000e+01,1.193923999999999950e+02
8.300000000000000000e+01,1.216336199999999934e+02
8.400000000000000000e+01,1.238777199999999965e+02
8.500000000000000000e+01,1.261241200000000049e+02
8.600000000000000000e+01,1.283723099999999988e+02
8.700000000000000000e+01,1.306219299999999919e+02
8.800000000000000000e+01,1.328724100000000021e+02
8.900000000000000000e+01,1.351233799999999974e+02
9.000000000000000000e+01,1.373744499999999960e+02
9.100000000000000000e+01,1.396251200000000097e+02
9.200000000000000000e+01,1.418751200000000097e+02
9.300000000000000000e+01,1.441240200000000016e+02
9.400000000000000000e+01,1.463714099999999974e+02
9.500000000000000000e+01,1.486170700000000124e+02
9.600000000000000000e+01,1.508605300000000113e+02
9.700000000000000000e+01,1.531015899999999874e+02
9.800000000000000000e+01,1.553399400000000128e+02
9.900000000000000000e+01,1.575752300000000048e+02
1.000000000000000000e+02,1.598072999999999979e+02
1.010000000000000000e+02,1.620357700000000136e+02
1.020000000000000000e+02,1.642604800000000012e+02
1.030000000000000000e+02,1.664811599999999885e+02
1.040000000000000000e+02,1.686976200000000006e+02
1.050000000000000000e+02,1.709096399999999960e+02
1.060000000000000000e+02,1.731169600000000059e+02
1.070000000000000000e+02,1.753194300000000112e+02
1.080000000000000000e+02,1.775167999999999893e+02
1.090000000000000000e+02,1.797089699999999937e+02
1.100000000000000000e+02,1.818956300000000113e+02
1.110000000000000000e+02,1.840766900000000135e+02
1.120000000000000000e+02,1.862519800000000032e+02
1.130000000000000000e+02,1.884213000000000022e+02
1.140000000000000000e+02,1.905844999999999914e+02
1.150000000000000000e+02,1.927413899999999956e+02
1.160000000000000000e+02,1.948919099999999958e+02
1.170000000000000000e+02,1.970358099999999979e+02
1.180000000000000000e+02,1.991729699999999923e+02
1.190000000000000000e+02,2.013033100000000104e+02
1.200000000000000000e+02,2.034266800000000046e+02
1.210000000000000000e+02,2.055429200000000094e+02
1.220000000000000000e+02,2.076519499999999994e+02
1.230000000000000000e+02,2.097536800000000028e+02
1.240000000000000000e+02,2.118479299999999910e+02
1.250000000000000000e+02,2.139346500000000049e+02
1.260000000000000000e+02,2.160136899999999969e+02
1.270000000000000000e+02,2.180850100000000111e+02
1.280000000000000000e+02,2.201485099999999875e+02
1.290000000000000000e+02,2.222040700000000015e+02
1.300000000000000000e+02,2.242515899999999931e+02
1.310000000000000000e+02,2.262909500000000094e+02
1.320000000000000000e+02,2.283220799999999997e+02
1.330000000000000000e+02,2.303448899999999924e+02
1.340000000000000000e+02,2.323592999999999904e+02
1.350000000000000000e+02,2.343651999999999873e+02
1.360000000000000000e+02,2.363625000000000114e+02
1.370000000000000000e+02,2.383511399999999867e+02
1.380000000000000000e+02,2.403310199999999952e+02
1.390000000000000000e+02,2.423020600000000115e+02
1.400000000000000000e+02,2.442642099999999914e+02
1.410000000000000000e+02,2.462173899999999946e+02
1.420000000000000000e+02,2.481615299999999991e+02
1.430000000000000000e+02,2.500965899999999920e+02
1.440000000000000000e+02,2.520224599999999953e+02
1.450000000000000000e+02,2.539391200000000026e+02
1.460000000000000000e+02,2.558464999999999918e+02
1.470000000000000000e+02,2.577445700000000102e+02
1.480000000000000000e+02,2.596332400000000007e+02
1.490000000000000000e+02,2.615124799999999823e+02
1.500000000000000000e+02,2.633823199999999929e+02
1.510000000000000000e+02,2.652425799999999754e+02
1.520000000000000000e+02,2.670933800000000247e+02
1.530000000000000000e+02,2.689345700000000079e+02
1.540000000000000000e+02,2.707661100000000260e+02
1.550000000000000000e+02,2.725880399999999781e+02
1.560000000000000000e+02,2.744002399999999966e+02
1.570000000000000000e+02,2.762027600000000120e+02
1.580000000000000000e+02,2.779954500000000053e+02
1.590000000000000000e+02,2.797783800000000269e+02
1.600000000000000000e+02,2.815513599999999883e+02
1.610000000000000000e+02,2.833144800000000032e+02
1.620000000000000000e+02,2.850674999999999955e+02
1.630000000000000000e+02,2.868104599999999778e+02
1.640000000000000000e+02,2.885432999999999879e+02
1.650000000000000000e+02,2.902658400000000256e+02
1.660000000000000000e+02,2.919780600000000277e+02
1.670000000000000000e+02,2.936798099999999749e+02
1.680000000000000000e+02,2.953709999999999809e+02
1.690000000000000000e+02,2.970515100000000075e+02
1.700000000000000000e+02,2.987212200000000166e+02
1.710000000000000000e+02,3.003799399999999764e+02
1.720000000000000000e+02,3.020275899999999751e+02
1.730000000000000000e+02,3.036639700000000062e+02
1.740000000000000000e+02,3.052889700000000062e+02
1.750000000000000000e+02,3.069023700000000190e+02
1.760000000000000000e+02,3.085040300000000002e+02
1.770000000000000000e+02,3.100938100000000190e+02
1.780000000000000000e+02,3.116714499999999930e+02
1.790000000000000000e+02,3.132368200000000229e+02
1.800000000000000000e+02,3.147897300000000200e+02
1.810000000000000000e+02,3.163299600000000282e+02
1.820000000000000000e+02,3.178573299999999904e+02
1.830000000000000000e+02,3.193715799999999945e+02
1.840000000000000000e+02,3.208725600000000213e+02
1.850000000000000000e+02,3.223599899999999820e+02
1.860000000000000000e+02,3.238336499999999774e+02
1.870000000000000000e+02,3.252933300000000258e+02
1.880000000000000000e+02,3.267388000000000261e+02
1.890000000000000000e+02,3.281698000000000093e+02
1.900000000000000000e+02,3.295860599999999749e+02
1.910000000000000000e+02,3.309873699999999985e+02
1.920000000000000000e+02,3.323734400000000164e+02
1.930000000000000000e+02,3.337440799999999967e+02
1.940000000000000000e+02,3.350989999999999895e+02
1.950000000000000000e+02,3.364379900000000134e+02
1.960000000000000000e+02,3.377607100000000173e+02
1.970000000000000000e+02,3.390670200000000136e+02
1.980000000000000000e+02,3.403566599999999767e+02
1.990000000000000000e+02,3.416293000000000006e+02
2.000000000000000000e+02,3.428848300000000222e+02
2.010000000000000000e+02,3.441229599999999778e+02
2.020000000000000000e+02,3.453435400000000186e+02
2.030000000000000000e+02,3.465462999999999738e+02
2.040000000000000000e+02,3.477310800000000199e+02
2.050000000000000000e+02,3.488976700000000051e+02
2.060000000000000000e+02,3.500459900000000175e+02
2.070000000000000000e+02,3.511758699999999749e+02
2.080000000000000000e+02,3.522872300000000223e+02
2.090000000000000000e+02,3.533798800000000142e+02
2.100000000000000000e+02,3.544538000000000011e+02
2.110000000000000000e+02,3.555090000000000146e+02
2.120000000000000000e+02,3.565453499999999849e+02
2.130000000000000000e+02,3.575629299999999944e+02
2.140000000000000000e+02,3.585617399999999861e+02
2.150000000000000000e+02,3.595418399999999792e+02
2.160000000000000000e+02,3.605033599999999865e+02
2.170000000000000000e+02,3.614463499999999954e+02
2.180000000000000000e+02,3.623710300000000188e+02
2.190000000000000000e+02,3.632775300000000129e+02
2.200000000000000000e+02,3.641661399999999844e+02
2.210000000000000000e+02,3.650370500000000220e+02
2.220000000000000000e+02,3.658905599999999936e+02
2.230000000000000000e+02,3.667269600000000196e+02
2.240000000000000000e+02,3.675466000000000122e+02
2.250000000000000000e+02,3.683498500000000035e+02
2.260000000000000000e+02,3.691371199999999817e+02
2.270000000000000000e+02,3.699088100000000168e+02
2.280000000000000000e+02,3.706653699999999958e+02
2.290000000000000000e+02,3.714073500000000081e+02
2.300000000000000000e+02,3.721351300000000037e+02
2.310000000000000000e+02,3.728492699999999900e+02
2.320000000000000000e+02,3.735502900000000182e+02
2.330000000000000000e+02,3.742387400000000071e+02
2.340000000000000000e+02,3.749151899999999955e+02
2.350000000000000000e+02,3.755802299999999718e+02
2.360000000000000000e+02,3.762344100000000253e+02
2.370000000000000000e+02,3.768783599999999865e+02
2.380000000000000000e+02,3.775126599999999826e+02
2.390000000000000000e+02,3.781379099999999767e+02
2.400000000000000000e+02,3.787547599999999761e+02
2.410000000000000000e+02,3.793637400000000071e+02
2.420000000000000000e+02,3.799654800000000137e+02
2.430000000000000000e+02,3.805606099999999969e+02
2.440000000000000000e+02,3.811497499999999832e+02
2.450000000000000000e+02,3.817335199999999986e+02
2.460000000000000000e+02,3.823124700000000189e+02
2.470000000000000000e+02,3.828872099999999818e+02
2.480000000000000000e+02,3.834583099999999831e+02
2.490000000000000000e+02,3.840264000000000237e+02
2.500000000000000000e+02,3.845920399999999972e+02
2.510000000000000000e+02,3.851557300000000055e+02
2.520000000000000000e+02,3.857180799999999863e+02
2.530000000000000000e+02,3.862795699999999783e+02
2.540000000000000000e+02,3.868407900000000268e+02
2.550000000000000000e+02,3.874022499999999809e+02
2.560000000000000000e+02,3.879644499999999994e+02
2.570000000000000000e+02,3.885279199999999946e+02
2.580000000000000000e+02,3.890930500000000052e+02
2.590000000000000000e+02,3.896605200000000195e+02
2.600000000000000000e+02,3.902306199999999876e+02
2.610000000000000000e+02,3.908041099999999801e+02
2.620000000000000000e+02,3.913811299999999846e+02
2.630000000000000000e+02,3.919622800000000211e+02
2.640000000000000000e+02,3.925481300000000147e+02
2.650000000000000000e+02,3.931389199999999846e+02
2.660000000000000000e+02,3.937353200000000015e+02
2.670000000000000000e+02,3.943375899999999774e+02
2.680000000000000000e+02,3.949464699999999766e+02
2.690000000000000000e+02,3.955621600000000058e+02
2.700000000000000000e+02,3.961851199999999835e+02
2.710000000000000000e+02,3.968159200000000055e+02
2.720000000000000000e+02,3.974549900000000093e+02
2.730000000000000000e+02,3.981028400000000147e+02
2.740000000000000000e+02,3.987599500000000035e+02
2.750000000000000000e+02,3.994266999999999825e+02
2.760000000000000000e+02,4.001036100000000033e+02
2.770000000000000000e+02,4.007911700000000224e+02
2.780000000000000000e+02,4.014900799999999776e+02
2.790000000000000000e+02,4.022005599999999959e+02
2.800000000000000000e+02,4.029235199999999963e+02
2.810000000000000000e+02,4.036592699999999923e+02
2.820000000000000000e+02,4.044085099999999784e+02
2.830000000000000000e+02,4.051717499999999745e+02
2.840000000000000000e+02,4.059496500000000196e+02
2.850000000000000000e+02,4.067429200000000264e+02
2.860000000000000000e+02,4.075522199999999771e+02
2.870000000000000000e+02,4.083781399999999735e+02
2.880000000000000000e+02,4.092215600000000109e+02
2.890000000000000000e+02,4.100832199999999830e+02
2.900000000000000000e+02,4.109636800000000108e+02
2.910000000000000000e+02,4.118641999999999825e+02
2.920000000000000000e+02,4.127853700000000003e+02
2.930000000000000000e+02,4.137277199999999766e+02
2.940000000000000000e+02,4.146929900000000089e+02
2.950000000000000000e+02,4.156816699999999969e+02
2.960000000000000000e+02,4.166947900000000118e+02
2.970000000000000000e+02,4.177335800000000177e+02
2.980000000000000000e+02,4.187989499999999907e+02
2.990000000000000000e+02,4.198922099999999773e+02
3.000000000000000000e+02,4.210143100000000231e+02
3.010000000000000000e+02,4.221662900000000036e+02
3.020000000000000000e+02,4.233496400000000222e+02
3.030000000000000000e+02,4.245656399999999735e+02
3.040000000000000000e+02,4.258154000000000110e+02
3.050000000000000000e+02,4.271005900000000111e+02
3.060000000000000000e+02,4.284215100000000120e+02
3.070000000000000000e+02,4.297795100000000161e+02
3.080000000000000000e+02,4.311755699999999933e+02
3.090000000000000000e+02,4.326113899999999717e+02
3.100000000000000000e+02,4.340871599999999830e+02
3.110000000000000000e+02,4.356028400000000147e+02
3.120000000000000000e+02,4.371599699999999871e+02
3.130000000000000000e+02,4.387578700000000254e+02
3.140000000000000000e+02,4.403960599999999772e+02
3.150000000000000000e+02,4.420737300000000118e+02
3.160000000000000000e+02,4.437898599999999760e+02
3.170000000000000000e+02,4.455421799999999735e+02
3.180000000000000000e+02,4.473286699999999882e+02
3.190000000000000000e+02,4.491450500000000261e+02
3.200000000000000000e+02,4.509874599999999987e+02
3.210000000000000000e+02,4.528511399999999867e+02
3.220000000000000000e+02,4.547305900000000065e+02
3.230000000000000000e+02,4.566199599999999919e+02
3.240000000000000000e+02,4.585124799999999823e+02
3.250000000000000000e+02,4.604016100000000051e+02
3.260000000000000000e+02,4.622817400000000134e+02
3.270000000000000000e+02,4.641462399999999775e+02
3.280000000000000000e+02,4.659906899999999723e+02
3.290000000000000000e+02,4.678109099999999785e+02
3.300000000000000000e+02,4.696040600000000040e+02
3.310000000000000000e+02,4.713684400000000210e+02
3.320000000000000000e+02,4.731037900000000036e+02
3.330000000000000000e+02,4.748099399999999832e+02
3.340000000000000000e+02,4.764878199999999993e+02
3.350000000000000000e+02,4.781389500000000226e+02
3.360000000000000000e+02,4.797648300000000177e+02
3.370000000000000000e+02,4.813669100000000185e+02
3.380000000000000000e+02,4.829468100000000277e+02
3.390000000000000000e+02,4.845058900000000222e+02
3.400000000000000000e+02,4.860450999999999908e+02
3.410000000000000000e+02,4.875655499999999734e+02
3.420000000000000000e+02,4.890683599999999842e+02
3.430000000000000000e+02,4.905539899999999989e+02
3.440000000000000000e+02,4.920233200000000124e+02
3.450000000000000000e+02,4.934772300000000200e+02
3.460000000000000000e+02,4.949157400000000280e+02
3.470000000000000000e+02,4.963397499999999809e+02
3.480000000000000000e+02,4.977495700000000056e+02
3.490000000000000000e+02,4.991457500000000209e+02
3.500000000000000000e+02,5.005287500000000023e+02
3.510000000000000000e+02,5.018987700000000132e+02
3.520000000000000000e+02,5.032563200000000165e+02
3.530000000000000000e+02,5.046016200000000254e+02
3.540000000000000000e+02,5.059350900000000024e+02
3.550000000000000000e+02,5.072567700000000173e+02
3.560000000000000000e+02,5.085671399999999949e+02
3.570000000000000000e+02,5.098665199999999800e+02
3.580000000000000000e+02,5.111549699999999916e+02
3.590000000000000000e+02,5.124326800000000048e+02
3.600000000000000000e+02,5.137000699999999824e+02
3.610000000000000000e+02,5.149572100000000319e+02
3.620000000000000000e+02,5.162044100000000526e+02
3.630000000000000000e+02,5.174416499999999814e+02
3.640000000000000000e+02,5.186690700000000334e+02
3.650000000000000000e+02,5.198870200000000068e+02
3.660000000000000000e+02,5.210956400000000031e+02
3.670000000000000000e+02,5.222951000000000477e+02
3.680000000000000000e+02,5.234854699999999639e+02
3.690000000000000000e+02,5.246669299999999794e+02
3.700000000000000000e+02,5.258395400000000564e+02
3.710000000000000000e+02,5.270032999999999674e+02
3.720000000000000000e+02,5.281584500000000162e+02
3.730000000000000000e+02,5.293053599999999506e+02
3.740000000000000000e+02,5.304440299999999979e+02
3.750000000000000000e+02,5.315744600000000446e+02
3.760000000000000000e+02,5.326967200000000275e+02
3.770000000000000000e+02,5.338109100000000353e+02
3.780000000000000000e+02,5.349170500000000175e+02
3.790000000000000000e+02,5.360154999999999745e+02
3.800000000000000000e+02,5.371062600000000202e+02
3.810000000000000000e+02,5.381893300000000409e+02
3.820000000000000000e+02,5.392647699999999986e+02
3.830000000000000000e+02,5.403327600000000075e+02
3.840000000000000000e+02,5.413934299999999666e+02
3.850000000000000000e+02,5.424466599999999517e+02
3.860000000000000000e+02,5.434927400000000262e+02
3.870000000000000000e+02,5.445314300000000003e+02
3.880000000000000000e+02,5.455631100000000515e+02
3.890000000000000000e+02,5.465877699999999777e+02
3.900000000000000000e+02,5.476053500000000440e+02
3.910000000000000000e+02,5.486160899999999856e+02
3.920000000000000000e+02,5.496198699999999917e+02
3.930000000000000000e+02,5.506169399999999996e+02
3.940000000000000000e+02,5.516072400000000471e+02
3.950000000000000000e+02,5.525908799999999701e+02
3.960000000000000000e+02,5.535678699999999708e+02
3.970000000000000000e+02,5.545382100000000491e+02
3.980000000000000000e+02,5.555021400000000540e+02
3.990000000000000000e+02,5.564595299999999725e+02
4.000000000000000000e+02,5.574105200000000195e+02
4.010000000000000000e+02,5.583551599999999553e+02
4.020000000000000000e+02,5.592934000000000196e+02
4.030000000000000000e+02,5.602255199999999604e+02
4.040000000000000000e+02,5.611513099999999667e+02
4.050000000000000000e+02,5.620708600000000388e+02
4.060000000000000000e+02,5.629845000000000255e+02
4.070000000000000000e+02,5.638920299999999770e+02
4.080000000000000000e+02,5.647934000000000196e+02
4.090000000000000000e+02,5.656887199999999893e+02
4.100000000000000000e+02,5.665783099999999877e+02
4.110000000000000000e+02,5.674618500000000267e+02
4.120000000000000000e+02,5.683396599999999808e+02
4.130000000000000000e+02,5.692114900000000262e+02
4.140000000000000000e+02,5.700776399999999740e+02
4.150000000000000000e+02,5.709380499999999756e+02
4.160000000000000000e+02,5.717926599999999553e+02
4.170000000000000000e+02,5.726417199999999639e+02
4.180000000000000000e+02,5.734852300000000014e+02
4.190000000000000000e+02,5.743229999999999791e+02
4.200000000000000000e+02,5.751552100000000110e+02
4.210000000000000000e+02,5.759818699999999581e+02
4.220000000000000000e+02,5.768031600000000481e+02
4.230000000000000000e+02,5.776189600000000155e+02
4.240000000000000000e+02,5.784293800000000374e+02
4.250000000000000000e+02,5.792344399999999496e+02
4.260000000000000000e+02,5.800341799999999921e+02
4.270000000000000000e+02,5.808286100000000260e+02
4.280000000000000000e+02,5.816177999999999884e+02
4.290000000000000000e+02,5.824017300000000432e+02
4.300000000000000000e+02,5.831804200000000264e+02
4.310000000000000000e+02,5.839539200000000392e+02
4.320000000000000000e+02,5.847224099999999680e+02
4.330000000000000000e+02,5.854857200000000148e+02
4.340000000000000000e+02,5.862440199999999777e+02
4.350000000000000000e+02,5.869973099999999704e+02
4.360000000000000000e+02,5.877456100000000561e+02
4.370000000000000000e+02,5.884888899999999694e+02
4.380000000000000000e+02,5.892272299999999632e+02
4.390000000000000000e+02,5.899606899999999996e+02
4.400000000000000000e+02,5.906893300000000409e+02
4.410000000000000000e+02,5.914130199999999604e+02
4.420000000000000000e+02,5.921319600000000491e+02
4.430000000000000000e+02,5.928461300000000165e+02
4.440000000000000000e+02,5.935555399999999509e+02
4.450000000000000000e+02,5.942602500000000418e+02
4.460000000000000000e+02,5.949603299999999990e+02
4.470000000000000000e+02,5.956556399999999485e+02
4.480000000000000000e+02,5.963464400000000296e+02
4.490000000000000000e+02,5.970325900000000274e+02
4.500000000000000000e+02,5.977141699999999673e+02
4.510000000000000000e+02,5.983911100000000260e+02
4.520000000000000000e+02,5.990636600000000271e+02
4.530000000000000000e+02,5.997317500000000337e+02
4.540000000000000000e+02,6.003952000000000453e+02
4.550000000000000000e+02,6.010543800000000374e+02
4.560000000000000000e+02,6.017092300000000478e+02
4.570000000000000000e+02,6.023596199999999499e+02
4.580000000000000000e+02,6.030056799999999839e+02
4.590000000000000000e+02,6.036473999999999478e+02
4.600000000000000000e+02,6.042847900000000436e+02
4.610000000000000000e+02,6.049180300000000443e+02
4.620000000000000000e+02,6.055469399999999496e+02
4.630000000000000000e+02,6.061716900000000123e+02
4.640000000000000000e+02,6.067922399999999925e+02
4.650000000000000000e+02,6.074086899999999787e+02
4.660000000000000000e+02,6.080209399999999960e+02
4.670000000000000000e+02,6.086290900000000192e+02
4.680000000000000000e+02,6.092332199999999602e+02
4.690000000000000000e+02,6.098332500000000209e+02
4.700000000000000000e+02,6.104292599999999993e+02
4.710000000000000000e+02,6.110212999999999965e+02
4.720000000000000000e+02,6.116093799999999874e+02
4.730000000000000000e+02,6.121934800000000223e+02
4.740000000000000000e+02,6.127736200000000508e+02
4.750000000000000000e+02,6.133499799999999595e+02
4.760000000000000000e+02,6.139223600000000260e+02
4.770000000000000000e+02,6.144909699999999475e+02
4.780000000000000000e+02,6.150556599999999889e+02
4.790000000000000000e+02,6.156165799999999990e+02
4.800000000000000000e+02,6.161737699999999904e+02
4.810000000000000000e+02,6.167271700000000010e+02
4.820000000000000000e+02,6.172768600000000561e+02
4.830000000000000000e+02,6.178228800000000547e+02
4.840000000000000000e+02,6.183651700000000346e+02
4.850000000000000000e+02,6.189038100000000213e+02
4.860000000000000000e+02,6.194388400000000274e+02
4.870000000000000000e+02,6.199702099999999518e+02
4.880000000000000000e+02,6.204980500000000347e+02
4.890000000000000000e+02,6.210223399999999856e+02
4.900000000000000000e+02,6.215430300000000443e+02
4.910000000000000000e+02,6.220602400000000216e+02
4.920000000000000000e+02,6.225739099999999553e+02
4.930000000000000000e+02,6.230841699999999719e+02
4.940000000000000000e+02,6.235908799999999701e+02
4.950000000000000000e+02,6.240942400000000134e+02
4.960000000000000000e+02,6.245941800000000512e+02
4.970000000000000000e+02,6.250907600000000457e+02
4.980000000000000000e+02,6.255839799999999968e+02
4.990000000000000000e+02,6.260738499999999931e+02
5.000000000000000000e+02,6.265602999999999838e+02
5.010000000000000000e+02,6.270435800000000199e+02
5.020000000000000000e+02,6.275235599999999749e+02
5.030000000000000000e+02,6.280002399999999625e+02
5.040000000000000000e+02,6.284736900000000333e+02
5.050000000000000000e+02,6.289438499999999976e+02
5.060000000000000000e+02,6.294108899999999949e+02
5.070000000000000000e+02,6.298748199999999997e+02
5.080000000000000000e+02,6.303355699999999615e+02
5.090000000000000000e+02,6.307932100000000446e+02
5.100000000000000000e+02,6.312476799999999457e+02
5.110000000000000000e+02,6.316990399999999681e+02
5.120000000000000000e+02,6.321473399999999856e+02
5.130000000000000000e+02,6.325925899999999729e+02
5.140000000000000000e+02,6.330348500000000058e+02
5.150000000000000000e+02,6.334740600000000086e+02
5.160000000000000000e+02,6.339103400000000192e+02
5.170000000000000000e+02,6.343435699999999997e+02
5.180000000000000000e+02,6.347739299999999503e+02
5.190000000000000000e+02,6.352012300000000096e+02
5.200000000000000000e+02,6.356256700000000137e+02
5.210000000000000000e+02,6.360471800000000258e+02
5.220000000000000000e+02,6.364658799999999701e+02
5.230000000000000000e+02,6.368816500000000360e+02
5.240000000000000000e+02,6.372946200000000090e+02
5.250000000000000000e+02,6.377047700000000532e+02
5.260000000000000000e+02,6.381121200000000044e+02
5.270000000000000000e+02,6.385167199999999639e+02
5.280000000000000000e+02,6.389185199999999440e+02
5.290000000000000000e+02,6.393175700000000461e+02
5.300000000000000000e+02,6.397139300000000048e+02
5.310000000000000000e+02,6.401075399999999718e+02
5.320000000000000000e+02,6.404984699999999975e+02
5.330000000000000000e+02,6.408867800000000443e+02
5.340000000000000000e+02,6.412723399999999856e+02
5.350000000000000000e+02,6.416553300000000490e+02
5.360000000000000000e+02,6.420356399999999439e+02
5.370000000000000000e+02,6.424133900000000494e+02
5.380000000000000000e+02,6.427885099999999738e+02
5.390000000000000000e+02,6.431610699999999952e+02
5.400000000000000000e+02,6.435310699999999997e+02
5.410000000000000000e+02,6.438984400000000505e+02
5.420000000000000000e+02,6.442633700000000090e+02
5.430000000000000000e+02,6.446258500000000140e+02
5.440000000000000000e+02,6.449857799999999770e+02
5.450000000000000000e+02,6.453432599999999866e+02
5.460000000000000000e+02,6.456983000000000175e+02
5.470000000000000000e+02,6.460508999999999560e+02
5.480000000000000000e+02,6.464010600000000295e+02
5.490000000000000000e+02,6.467487800000000107e+02
5.500000000000000000e+02,6.470941199999999753e+02
5.510000000000000000e+02,6.474371300000000247e+02
5.520000000000000000e+02,6.477777700000000323e+02
5.530000000000000000e+02,6.481160300000000234e+02
5.540000000000000000e+02,6.484519699999999602e+02
5.550000000000000000e+02,6.487856399999999439e+02
5.560000000000000000e+02,6.491169399999999996e+02
5.570000000000000000e+02,6.494459799999999632e+02
5.580000000000000000e+02,6.497728299999999990e+02
5.590000000000000000e+02,6.500973500000000058e+02
5.600000000000000000e+02,6.504196799999999712e+02
5.610000000000000000e+02,6.507397499999999582e+02
5.620000000000000000e+02,6.510575599999999667e+02
5.630000000000000000e+02,6.513732899999999972e+02
5.640000000000000000e+02,6.516867700000000241e+02
5.650000000000000000e+02,6.519981099999999969e+02
5.660000000000000000e+02,6.523073100000000295e+02
5.670000000000000000e+02,6.526143799999999828e+02
5.680000000000000000e+02,6.529193099999999959e+02
5.690000000000000000e+02,6.532221100000000433e+02
5.700000000000000000e+02,6.535228299999999990e+02
5.710000000000000000e+02,6.538214699999999766e+02
5.720000000000000000e+02,6.541180399999999509e+02
5.730000000000000000e+02,6.544125999999999976e+02
5.740000000000000000e+02,6.547051400000000285e+02
5.750000000000000000e+02,6.549956100000000561e+02
5.760000000000000000e+02,6.552840599999999540e+02
5.770000000000000000e+02,6.555705600000000004e+02
5.780000000000000000e+02,6.558550400000000309e+02
5.790000000000000000e+02,6.561375100000000202e+02
5.800000000000000000e+02,6.564180900000000065e+02
5.810000000000000000e+02,6.566967200000000275e+02
5.820000000000000000e+02,6.569733899999999949e+02
5.830000000000000000e+02,6.572482300000000350e+02
5.840000000000000000e+02,6.575210600000000341e+02
5.850000000000000000e+02,6.577920500000000175e+02
5.860000000000000000e+02,6.580611599999999726e+02
5.870000000000000000e+02,6.583284300000000258e+02
5.880000000000000000e+02,6.585937500000000000e+02
5.890000000000000000e+02,6.588573599999999715e+02
5.900000000000000000e+02,6.591190800000000536e+02
5.910000000000000000e+02,6.593789100000000190e+02
5.920000000000000000e+02,6.596370200000000068e+02
5.930000000000000000e+02,6.598933700000000044e+02
5.940000000000000000e+02,6.601478899999999612e+02
5.950000000000000000e+02,6.604006299999999783e+02
5.960000000000000000e+02,6.606516100000000051e+02
5.970000000000000000e+02,6.609008800000000292e+02
5.980000000000000000e+02,6.611484400000000505e+02
5.990000000000000000e+02,6.613942299999999932e+02