# Time [s], Temperature [C]
1.000000000000000000e+00,2.499997099999999861e+01
2.000000000000000000e+00,7.540826400000000262e+01
3.000000000000000000e+00,1.036185200000000037e+02
4.000000000000000000e+00,1.262005599999999959e+02
5.000000000000000000e+00,1.448700300000000141e+02
6.000000000000000000e+00,1.611003900000000044e+02
7.000000000000000000e+00,1.755071399999999926e+02
8.000000000000000000e+00,1.885257300000000100e+02
9.000000000000000000e+00,2.004248000000000047e+02
1.000000000000000000e+01,2.114019199999999898e+02
1.100000000000000000e+01,2.216035200000000032e+02
1.200000000000000000e+01,2.311375099999999918e+02
1.300000000000000000e+01,2.400962800000000072e+02
1.400000000000000000e+01,2.485479100000000017e+02
1.500000000000000000e+01,2.565556599999999889e+02
1.600000000000000000e+01,2.641722100000000069e+02
1.700000000000000000e+01,2.714457100000000196e+02
1.800000000000000000e+01,2.784139099999999871e+02
1.900000000000000000e+01,2.851181599999999889e+02
2.000000000000000000e+01,2.915675699999999892e+02
2.100000000000000000e+01,2.977761499999999728e+02
2.200000000000000000e+01,3.037362100000000282e+02
2.300000000000000000e+01,3.094549299999999903e+02
2.400000000000000000e+01,3.149312699999999836e+02
2.500000000000000000e+01,3.201768200000000206e+02
2.600000000000000000e+01,3.252114599999999882e+02
2.700000000000000000e+01,3.300396999999999821e+02
2.800000000000000000e+01,3.346867100000000050e+02
2.900000000000000000e+01,3.391557300000000055e+02
3.000000000000000000e+01,3.434632300000000100e+02
3.100000000000000000e+01,3.476162699999999859e+02
3.200000000000000000e+01,3.516191699999999969e+02
3.300000000000000000e+01,3.554771700000000010e+02
3.400000000000000000e+01,3.592011400000000094e+02
3.500000000000000000e+01,3.627835400000000163e+02
3.600000000000000000e+01,3.662419699999999807e+02
3.700000000000000000e+01,3.695783999999999878e+02
3.800000000000000000e+01,3.727747800000000211e+02
3.900000000000000000e+01,3.758598000000000070e+02
4.000000000000000000e+01,3.788269300000000044e+02
4.100000000000000000e+01,3.816596400000000244e+02
4.200000000000000000e+01,3.843956600000000208e+02
4.300000000000000000e+01,3.870279499999999757e+02
4.400000000000000000e+01,3.895164500000000203e+02
4.500000000000000000e+01,3.919368900000000053e+02
4.600000000000000000e+01,3.942664199999999823e+02
4.700000000000000000e+01,3.964573700000000258e+02
4.800000000000000000e+01,3.986052199999999743e+02
4.900000000000000000e+01,4.006841999999999757e+02
5.000000000000000000e+01,4.026273199999999974e+02
5.100000000000000000e+01,4.045608199999999783e+02
5.200000000000000000e+01,4.064480599999999981e+02
5.300000000000000000e+01,4.082077300000000264e+02
5.400000000000000000e+01,4.099951199999999858e+02
5.500000000000000000e+01,4.117540000000000191e+02
5.600000000000000000e+01,4.133976099999999860e+02
5.700000000000000000e+01,4.150960999999999785e+02
5.800000000000000000e+01,4.167885400000000118e+02
5.900000000000000000e+01,4.183772599999999784e+02
6.000000000000000000e+01,4.200398299999999949e+02
6.100000000000000000e+01,4.217113600000000133e+02
6.200000000000000000e+01,4.232951400000000035e+02
6.300000000000000000e+01,4.249631299999999783e+02
6.400000000000000000e+01,4.266494799999999827e+02
6.500000000000000000e+01,4.282616600000000062e+02
6.600000000000000000e+01,4.299535799999999881e+02
6.700000000000000000e+01,4.316643399999999815e+02
6.800000000000000000e+01,4.333149099999999976e+02
6.900000000000000000e+01,4.350311599999999999e+02
7.000000000000000000e+01,4.367548499999999763e+02
7.100000000000000000e+01,4.384268500000000017e+02
7.200000000000000000e+01,4.401347700000000032e+02
7.300000000000000000e+01,4.418339799999999968e+02
7.400000000000000000e+01,4.434839200000000119e+02
7.500000000000000000e+01,4.451362300000000118e+02
7.600000000000000000e+01,4.467636999999999716e+02
7.700000000000000000e+01,4.483409100000000080e+02
7.800000000000000000e+01,4.498969099999999912e+02
7.900000000000000000e+01,4.514193700000000149e+02
8.000000000000000000e+01,4.529017000000000053e+02
8.100000000000000000e+01,4.543577900000000227e+02
8.200000000000000000e+01,4.557865899999999897e+02
8.300000000000000000e+01,4.571925699999999892e+02
8.400000000000000000e+01,4.585808099999999854e+02
8.500000000000000000e+01,4.599550800000000095e+02
8.600000000000000000e+01,4.613150899999999979e+02
8.700000000000000000e+01,4.626690100000000143e+02
8.800000000000000000e+01,4.640183400000000233e+02
8.900000000000000000e+01,4.653598299999999881e+02
9.000000000000000000e+01,4.666979999999999791e+02
9.100000000000000000e+01,4.680309100000000058e+02
9.200000000000000000e+01,4.693598600000000260e+02
9.300000000000000000e+01,4.706799899999999752e+02
9.400000000000000000e+01,4.719897799999999961e+02
9.500000000000000000e+01,4.732949199999999905e+02
9.600000000000000000e+01,4.745843499999999722e+02
9.700000000000000000e+01,4.758594400000000064e+02
9.800000000000000000e+01,4.771202999999999861e+02
9.900000000000000000e+01,4.783629199999999742e+02
1.000000000000000000e+02,4.795882300000000100e+02
1.010000000000000000e+02,4.807934300000000007e+02
1.020000000000000000e+02,4.819801899999999932e+02
1.030000000000000000e+02,4.831455399999999827e+02
1.040000000000000000e+02,4.842960199999999986e+02
1.050000000000000000e+02,4.854295999999999935e+02
1.060000000000000000e+02,4.865473600000000260e+02
1.070000000000000000e+02,4.876501499999999965e+02
1.080000000000000000e+02,4.887443200000000161e+02
1.090000000000000000e+02,4.898258400000000279e+02
1.100000000000000000e+02,4.909020100000000184e+02
1.110000000000000000e+02,4.919696000000000140e+02
1.120000000000000000e+02,4.930327500000000214e+02
1.130000000000000000e+02,4.940899000000000001e+02
1.140000000000000000e+02,4.951408700000000067e+02
1.150000000000000000e+02,4.961880800000000136e+02
1.160000000000000000e+02,4.972298000000000116e+02
1.170000000000000000e+02,4.982665700000000015e+02
1.180000000000000000e+02,4.992938800000000015e+02
1.190000000000000000e+02,5.003166499999999814e+02
1.200000000000000000e+02,5.013315400000000182e+02
1.210000000000000000e+02,5.023354199999999992e+02
1.220000000000000000e+02,5.033337700000000154e+02
1.230000000000000000e+02,5.043186999999999784e+02
1.240000000000000000e+02,5.052950999999999908e+02
1.250000000000000000e+02,5.062595200000000091e+02
1.260000000000000000e+02,5.072176799999999730e+02
1.270000000000000000e+02,5.081604899999999816e+02
1.280000000000000000e+02,5.090966500000000110e+02
1.290000000000000000e+02,5.100212999999999965e+02
1.300000000000000000e+02,5.109377700000000004e+02
1.310000000000000000e+02,5.118472899999999868e+02
1.320000000000000000e+02,5.127496899999999869e+02
1.330000000000000000e+02,5.136415399999999636e+02
1.340000000000000000e+02,5.145302699999999732e+02
1.350000000000000000e+02,5.154142500000000382e+02
1.360000000000000000e+02,5.162912599999999657e+02
1.370000000000000000e+02,5.171670500000000175e+02
1.380000000000000000e+02,5.180342399999999543e+02
1.390000000000000000e+02,5.189002100000000155e+02
1.400000000000000000e+02,5.197595800000000281e+02
1.410000000000000000e+02,5.206154199999999719e+02
1.420000000000000000e+02,5.214640500000000429e+02
1.430000000000000000e+02,5.223109699999999975e+02
1.440000000000000000e+02,5.231481300000000374e+02
1.450000000000000000e+02,5.239826000000000477e+02
1.460000000000000000e+02,5.248088999999999942e+02
1.470000000000000000e+02,5.256304300000000467e+02
1.480000000000000000e+02,5.264453099999999495e+02
1.490000000000000000e+02,5.272515899999999647e+02
1.500000000000000000e+02,5.280524900000000343e+02
1.510000000000000000e+02,5.288469199999999546e+02
1.520000000000000000e+02,5.296336700000000519e+02
1.530000000000000000e+02,5.304155299999999897e+02
1.540000000000000000e+02,5.311909200000000055e+02
1.550000000000000000e+02,5.319627100000000155e+02
1.560000000000000000e+02,5.327264999999999873e+02
1.570000000000000000e+02,5.334868800000000419e+02
1.580000000000000000e+02,5.342437700000000405e+02
1.590000000000000000e+02,5.349954199999999673e+02
1.600000000000000000e+02,5.357443799999999783e+02
1.610000000000000000e+02,5.364862100000000282e+02
1.620000000000000000e+02,5.372256499999999733e+02
1.630000000000000000e+02,5.379605699999999615e+02
1.640000000000000000e+02,5.386933000000000220e+02
1.650000000000000000e+02,5.394202900000000227e+02
1.660000000000000000e+02,5.401424600000000282e+02
1.670000000000000000e+02,5.408622400000000425e+02
1.680000000000000000e+02,5.415746500000000196e+02
1.690000000000000000e+02,5.422817999999999756e+02
1.700000000000000000e+02,5.429861499999999523e+02
1.710000000000000000e+02,5.436847500000000082e+02
1.720000000000000000e+02,5.443799999999999955e+02
1.730000000000000000e+02,5.450696400000000494e+02
1.740000000000000000e+02,5.457539699999999812e+02
1.750000000000000000e+02,5.464331100000000561e+02
1.760000000000000000e+02,5.471106600000000526e+02
1.770000000000000000e+02,5.477811900000000378e+02
1.780000000000000000e+02,5.484475700000000415e+02
1.790000000000000000e+02,5.491132800000000316e+02
1.800000000000000000e+02,5.497714799999999968e+02
1.810000000000000000e+02,5.504263899999999694e+02
1.820000000000000000e+02,5.510791600000000017e+02
1.830000000000000000e+02,5.517252799999999979e+02
1.840000000000000000e+02,5.523682900000000018e+02
1.850000000000000000e+02,5.530096399999999903e+02
1.860000000000000000e+02,5.536447100000000319e+02
1.870000000000000000e+02,5.542778899999999567e+02
1.880000000000000000e+02,5.549079600000000028e+02
1.890000000000000000e+02,5.555327800000000025e+02
1.900000000000000000e+02,5.561542399999999589e+02
1.910000000000000000e+02,5.567708099999999831e+02
1.920000000000000000e+02,5.573847700000000032e+02
1.930000000000000000e+02,5.579941999999999780e+02
1.940000000000000000e+02,5.586007100000000491e+02
1.950000000000000000e+02,5.592005599999999959e+02
1.960000000000000000e+02,5.597985200000000532e+02
1.970000000000000000e+02,5.603927599999999529e+02
1.980000000000000000e+02,5.609829700000000230e+02
1.990000000000000000e+02,5.615673199999999952e+02
2.000000000000000000e+02,5.621511199999999917e+02
2.010000000000000000e+02,5.627301599999999553e+02
2.020000000000000000e+02,5.633061500000000024e+02
2.030000000000000000e+02,5.638772000000000162e+02
2.040000000000000000e+02,5.644473900000000413e+02
2.050000000000000000e+02,5.650105600000000550e+02
2.060000000000000000e+02,5.655731200000000172e+02
2.070000000000000000e+02,5.661325100000000248e+02
2.080000000000000000e+02,5.666863399999999729e+02
2.090000000000000000e+02,5.672383999999999560e+02
2.100000000000000000e+02,5.677859499999999571e+02
2.110000000000000000e+02,5.683301400000000285e+02
2.120000000000000000e+02,5.688724999999999454e+02
2.130000000000000000e+02,5.694086300000000165e+02
2.140000000000000000e+02,5.699436600000000226e+02
2.150000000000000000e+02,5.704736900000000333e+02
2.160000000000000000e+02,5.709986000000000104e+02
2.170000000000000000e+02,5.715234400000000505e+02
2.180000000000000000e+02,5.720435800000000199e+02
2.190000000000000000e+02,5.725598099999999704e+02
2.200000000000000000e+02,5.730730600000000550e+02
2.210000000000000000e+02,5.735843499999999722e+02
2.220000000000000000e+02,5.740889899999999670e+02
2.230000000000000000e+02,5.745933199999999488e+02
2.240000000000000000e+02,5.750934399999999869e+02
2.250000000000000000e+02,5.755913100000000213e+02
2.260000000000000000e+02,5.760841699999999719e+02
2.270000000000000000e+02,5.765749499999999443e+02
2.280000000000000000e+02,5.770625000000000000e+02
2.290000000000000000e+02,5.775455299999999852e+02
2.300000000000000000e+02,5.780266699999999673e+02
2.310000000000000000e+02,5.785034799999999677e+02
2.320000000000000000e+02,5.789777800000000525e+02
2.330000000000000000e+02,5.794498899999999821e+02
2.340000000000000000e+02,5.799166300000000547e+02
2.350000000000000000e+02,5.803817099999999982e+02
2.360000000000000000e+02,5.808431399999999485e+02
2.370000000000000000e+02,5.813012099999999691e+02
2.380000000000000000e+02,5.817564700000000357e+02
2.390000000000000000e+02,5.822096599999999853e+02
2.400000000000000000e+02,5.826574100000000271e+02
2.410000000000000000e+02,5.831033899999999903e+02
2.420000000000000000e+02,5.835467499999999745e+02
2.430000000000000000e+02,5.839844399999999496e+02
2.440000000000000000e+02,5.844216900000000123e+02
2.450000000000000000e+02,5.848561999999999443e+02
2.460000000000000000e+02,5.852873499999999467e+02
2.470000000000000000e+02,5.857140500000000429e+02
2.480000000000000000e+02,5.861394699999999602e+02
2.490000000000000000e+02,5.865617700000000241e+02
2.500000000000000000e+02,5.869809000000000196e+02
2.510000000000000000e+02,5.873963599999999587e+02
2.520000000000000000e+02,5.878095700000000079e+02
2.530000000000000000e+02,5.882198499999999513e+02
2.540000000000000000e+02,5.886283600000000433e+02
2.550000000000000000e+02,5.890331400000000031e+02
2.560000000000000000e+02,5.894337799999999561e+02
2.570000000000000000e+02,5.898336799999999585e+02
2.580000000000000000e+02,5.902300400000000309e+02
2.590000000000000000e+02,5.906236599999999726e+02
2.600000000000000000e+02,5.910156899999999496e+02
2.610000000000000000e+02,5.914040499999999838e+02
2.620000000000000000e+02,5.917884500000000116e+02
2.630000000000000000e+02,5.921724199999999882e+02
2.640000000000000000e+02,5.925529199999999719e+02
2.650000000000000000e+02,5.929307900000000018e+02
2.660000000000000000e+02,5.933071300000000292e+02
2.670000000000000000e+02,5.936805399999999509e+02
2.680000000000000000e+02,5.940510299999999688e+02
2.690000000000000000e+02,5.944194899999999961e+02
2.700000000000000000e+02,5.947854599999999436e+02
2.710000000000000000e+02,5.951490499999999884e+02
2.720000000000000000e+02,5.955096399999999903e+02
2.730000000000000000e+02,5.958681000000000267e+02
2.740000000000000000e+02,5.962242400000000089e+02
2.750000000000000000e+02,5.965800799999999526e+02
2.760000000000000000e+02,5.969315800000000536e+02
2.770000000000000000e+02,5.972817999999999756e+02
2.780000000000000000e+02,5.976298199999999952e+02
2.790000000000000000e+02,5.979750999999999976e+02
2.800000000000000000e+02,5.983187299999999595e+02
2.810000000000000000e+02,5.986608899999999949e+02
2.820000000000000000e+02,5.990006700000000137e+02
2.830000000000000000e+02,5.993390500000000429e+02
2.840000000000000000e+02,5.996745600000000422e+02
2.850000000000000000e+02,6.000081800000000385e+02
2.860000000000000000e+02,6.003393600000000561e+02
2.870000000000000000e+02,6.006696799999999712e+02
2.880000000000000000e+02,6.009977999999999838e+02
2.890000000000000000e+02,6.013248300000000199e+02
2.900000000000000000e+02,6.016492299999999886e+02
2.910000000000000000e+02,6.019722900000000436e+02
2.920000000000000000e+02,6.022946799999999712e+02
2.930000000000000000e+02,6.026149900000000343e+02
2.940000000000000000e+02,6.029332299999999805e+02
2.950000000000000000e+02,6.032503100000000131e+02
2.960000000000000000e+02,6.035650000000000546e+02
2.970000000000000000e+02,6.038786000000000058e+02
2.980000000000000000e+02,6.041902499999999918e+02
2.990000000000000000e+02,6.045009800000000268e+02
3.000000000000000000e+02,6.048107300000000350e+02
3.010000000000000000e+02,6.051175500000000511e+02
3.020000000000000000e+02,6.054244400000000041e+02
3.030000000000000000e+02,6.057295500000000175e+02
3.040000000000000000e+02,6.060353400000000192e+02
3.050000000000000000e+02,6.063380700000000161e+02
3.060000000000000000e+02,6.066400099999999611e+02
3.070000000000000000e+02,6.069403700000000299e+02
3.080000000000000000e+02,6.072409699999999475e+02
3.090000000000000000e+02,6.075387600000000248e+02
3.100000000000000000e+02,6.078363600000000133e+02
3.110000000000000000e+02,6.081331800000000385e+02
3.120000000000000000e+02,6.084296299999999746e+02
3.130000000000000000e+02,6.087248499999999467e+02
3.140000000000000000e+02,6.090194099999999935e+02
3.150000000000000000e+02,6.093123799999999619e+02
3.160000000000000000e+02,6.096054100000000062e+02
3.170000000000000000e+02,6.098968499999999722e+02
3.180000000000000000e+02,6.101881100000000515e+02
3.190000000000000000e+02,6.104784499999999525e+02
3.200000000000000000e+02,6.107707500000000209e+02
3.210000000000000000e+02,6.110597500000000082e+02
3.220000000000000000e+02,6.113491800000000467e+02
3.230000000000000000e+02,6.116382399999999961e+02
3.240000000000000000e+02,6.119271899999999960e+02
3.250000000000000000e+02,6.122144799999999805e+02
3.260000000000000000e+02,6.125028700000000299e+02
3.270000000000000000e+02,6.127921099999999797e+02
3.280000000000000000e+02,6.130793499999999767e+02
3.290000000000000000e+02,6.133679200000000264e+02
3.300000000000000000e+02,6.136555200000000241e+02
3.310000000000000000e+02,6.139438499999999976e+02
3.320000000000000000e+02,6.142312600000000202e+02
3.330000000000000000e+02,6.145202000000000453e+02
3.340000000000000000e+02,6.148081700000000183e+02
3.350000000000000000e+02,6.150976600000000190e+02
3.360000000000000000e+02,6.153856799999999794e+02
3.370000000000000000e+02,6.156748700000000554e+02
3.380000000000000000e+02,6.159653899999999567e+02
3.390000000000000000e+02,6.162548799999999574e+02
3.400000000000000000e+02,6.165466300000000501e+02
3.410000000000000000e+02,6.168383199999999533e+02
3.420000000000000000e+02,6.171308599999999842e+02
3.430000000000000000e+02,6.174226700000000392e+02
3.440000000000000000e+02,6.177164299999999457e+02
3.450000000000000000e+02,6.180105600000000550e+02
3.460000000000000000e+02,6.183062099999999646e+02
3.470000000000000000e+02,6.186027199999999766e+02
3.480000000000000000e+02,6.188997200000000021e+02
3.490000000000000000e+02,6.191973299999999654e+02
3.500000000000000000e+02,6.194968300000000454e+02
3.510000000000000000e+02,6.197955899999999474e+02
3.520000000000000000e+02,6.200961899999999787e+02
3.530000000000000000e+02,6.203978899999999612e+02
3.540000000000000000e+02,6.207007399999999961e+02
3.550000000000000000e+02,6.210030500000000302e+02
3.560000000000000000e+02,6.213082900000000564e+02
3.570000000000000000e+02,6.216128499999999804e+02
3.580000000000000000e+02,6.219188799999999446e+02
3.590000000000000000e+02,6.222247899999999845e+02
3.600000000000000000e+02,6.225317400000000134e+02
3.610000000000000000e+02,6.228386799999999539e+02
3.620000000000000000e+02,6.231470299999999725e+02
3.630000000000000000e+02,6.234545900000000529e+02
3.640000000000000000e+02,6.237634299999999712e+02
3.650000000000000000e+02,6.240729999999999791e+02
3.660000000000000000e+02,6.243834200000000010e+02
3.670000000000000000e+02,6.246935399999999845e+02
3.680000000000000000e+02,6.250033600000000433e+02
3.690000000000000000e+02,6.253135999999999513e+02
3.700000000000000000e+02,6.256236599999999726e+02
3.710000000000000000e+02,6.259348099999999704e+02
3.720000000000000000e+02,6.262441999999999780e+02
3.730000000000000000e+02,6.265540799999999990e+02
3.740000000000000000e+02,6.268641400000000203e+02
3.750000000000000000e+02,6.271737100000000282e+02
3.760000000000000000e+02,6.274833399999999983e+02
3.770000000000000000e+02,6.277919299999999794e+02
3.780000000000000000e+02,6.281012600000000248e+02
3.790000000000000000e+02,6.284091799999999921e+02
3.800000000000000000e+02,6.287178300000000490e+02
3.810000000000000000e+02,6.290243500000000267e+02
3.820000000000000000e+02,6.293308700000000044e+02
3.830000000000000000e+02,6.296368400000000065e+02
3.840000000000000000e+02,6.299421399999999949e+02
3.850000000000000000e+02,6.302470100000000457e+02
3.860000000000000000e+02,6.305507199999999557e+02
3.870000000000000000e+02,6.308540600000000040e+02
3.880000000000000000e+02,6.311571699999999510e+02
3.890000000000000000e+02,6.314596599999999853e+02
3.900000000000000000e+02,6.317597700000000032e+02
3.910000000000000000e+02,6.320598099999999704e+02
3.920000000000000000e+02,6.323591300000000501e+02
3.930000000000000000e+02,6.326577099999999518e+02
3.940000000000000000e+02,6.329542199999999639e+02
3.950000000000000000e+02,6.332512199999999893e+02
3.960000000000000000e+02,6.335471800000000258e+02
3.970000000000000000e+02,6.338418599999999969e+02
3.980000000000000000e+02,6.341350099999999657e+02
3.990000000000000000e+02,6.344274900000000343e+02
4.000000000000000000e+02,6.347186299999999619e+02
4.010000000000000000e+02,6.350097700000000032e+02
4.020000000000000000e+02,6.352982799999999770e+02
4.030000000000000000e+02,6.355864900000000262e+02
4.040000000000000000e+02,6.358749400000000378e+02
4.050000000000000000e+02,6.361601600000000190e+02
4.060000000000000000e+02,6.364450100000000248e+02
4.070000000000000000e+02,6.367288800000000037e+02
4.080000000000000000e+02,6.370119600000000446e+02
4.090000000000000000e+02,6.372928500000000440e+02
4.100000000000000000e+02,6.375743999999999687e+02
4.110000000000000000e+02,6.378538800000000037e+02
4.120000000000000000e+02,6.381312299999999595e+02
4.130000000000000000e+02,6.384086300000000165e+02
4.140000000000000000e+02,6.386842000000000326e+02
4.150000000000000000e+02,6.389595900000000483e+02
4.160000000000000000e+02,6.392326000000000477e+02
4.170000000000000000e+02,6.395048799999999574e+02
4.180000000000000000e+02,6.397759999999999536e+02
4.190000000000000000e+02,6.400454700000000230e+02
4.200000000000000000e+02,6.403147000000000162e+02
4.210000000000000000e+02,6.405822100000000319e+02
4.220000000000000000e+02,6.408481399999999439e+02
4.230000000000000000e+02,6.411133399999999938e+02
4.240000000000000000e+02,6.413772599999999784e+02
4.250000000000000000e+02,6.416402600000000120e+02
4.260000000000000000e+02,6.419016699999999673e+02
4.270000000000000000e+02,6.421620500000000220e+02
4.280000000000000000e+02,6.424207199999999602e+02
4.290000000000000000e+02,6.426790799999999990e+02
4.300000000000000000e+02,6.429356699999999591e+02
4.310000000000000000e+02,6.431908600000000433e+02
4.320000000000000000e+02,6.434452499999999873e+02
4.330000000000000000e+02,6.436989099999999553e+02
4.340000000000000000e+02,6.439503799999999956e+02
4.350000000000000000e+02,6.442009900000000471e+02
4.360000000000000000e+02,6.444503799999999956e+02
4.370000000000000000e+02,6.446987299999999550e+02
4.380000000000000000e+02,6.449461099999999760e+02
4.390000000000000000e+02,6.451912200000000439e+02
4.400000000000000000e+02,6.454362800000000107e+02
4.410000000000000000e+02,6.456804200000000264e+02
4.420000000000000000e+02,6.459218799999999874e+02
4.430000000000000000e+02,6.461638199999999870e+02
4.440000000000000000e+02,6.464036300000000210e+02
4.450000000000000000e+02,6.466423999999999523e+02
4.460000000000000000e+02,6.468805499999999711e+02
4.470000000000000000e+02,6.471162100000000237e+02
4.480000000000000000e+02,6.473522299999999632e+02
4.490000000000000000e+02,6.475860000000000127e+02
4.500000000000000000e+02,6.478190899999999601e+02
4.510000000000000000e+02,6.480513899999999694e+02
4.520000000000000000e+02,6.482815600000000131e+02
4.530000000000000000e+02,6.485114099999999553e+02
4.540000000000000000e+02,6.487395599999999831e+02
4.550000000000000000e+02,6.489672199999999975e+02
4.560000000000000000e+02,6.491933599999999842e+02
4.570000000000000000e+02,6.494179699999999684e+02
4.580000000000000000e+02,6.496424600000000282e+02
4.590000000000000000e+02,6.498644399999999450e+02
4.600000000000000000e+02,6.500866700000000264e+02
4.610000000000000000e+02,6.503065800000000536e+02
4.620000000000000000e+02,6.505263700000000426e+02
4.630000000000000000e+02,6.507443200000000161e+02
4.640000000000000000e+02,6.509617899999999509e+02
4.650000000000000000e+02,6.511779199999999719e+02
4.660000000000000000e+02,6.513926999999999907e+02
4.670000000000000000e+02,6.516069899999999961e+02
4.680000000000000000e+02,6.518189700000000357e+02
4.690000000000000000e+02,6.520314899999999625e+02
4.700000000000000000e+02,6.522417000000000371e+02
4.710000000000000000e+02,6.524519699999999602e+02
4.720000000000000000e+02,6.526594800000000305e+02
4.730000000000000000e+02,6.528676799999999503e+02
4.740000000000000000e+02,6.530737299999999550e+02
4.750000000000000000e+02,6.532791700000000219e+02
4.760000000000000000e+02,6.534833999999999605e+02
4.770000000000000000e+02,6.536870099999999866e+02
4.780000000000000000e+02,6.538883100000000468e+02
4.790000000000000000e+02,6.540905800000000454e+02
4.800000000000000000e+02,6.542898599999999760e+02
4.810000000000000000e+02,6.544895599999999831e+02
4.820000000000000000e+02,6.546871300000000247e+02
4.830000000000000000e+02,6.548845199999999522e+02
4.840000000000000000e+02,6.550799600000000282e+02
4.850000000000000000e+02,6.552756299999999783e+02
4.860000000000000000e+02,6.554692999999999756e+02
4.870000000000000000e+02,6.556624100000000226e+02
4.880000000000000000e+02,6.558543700000000172e+02
4.890000000000000000e+02,6.560457199999999602e+02
4.900000000000000000e+02,6.562347999999999502e+02
4.910000000000000000e+02,6.564248700000000554e+02
4.920000000000000000e+02,6.566120600000000422e+02
4.930000000000000000e+02,6.567997400000000425e+02
4.940000000000000000e+02,6.569853500000000395e+02
4.950000000000000000e+02,6.571711400000000367e+02
4.960000000000000000e+02,6.573544299999999794e+02
4.970000000000000000e+02,6.575386399999999867e+02
4.980000000000000000e+02,6.577199100000000271e+02
4.990000000000000000e+02,6.579014899999999670e+02
5.000000000000000000e+02,6.580817899999999554e+02
5.010000000000000000e+02,6.582612900000000309e+02
5.020000000000000000e+02,6.584395100000000411e+02
5.030000000000000000e+02,6.586169399999999996e+02
5.040000000000000000e+02,6.587940700000000334e+02
5.050000000000000000e+02,6.589689899999999625e+02
5.060000000000000000e+02,6.591445899999999938e+02
5.070000000000000000e+02,6.593176899999999705e+02
5.080000000000000000e+02,6.594912100000000237e+02
5.090000000000000000e+02,6.596627799999999979e+02
5.100000000000000000e+02,6.598345900000000483e+02
5.110000000000000000e+02,6.600041499999999814e+02
5.120000000000000000e+02,6.601735800000000154e+02
5.130000000000000000e+02,6.603419199999999591e+02
5.140000000000000000e+02,6.605090900000000147e+02
5.150000000000000000e+02,6.606763300000000072e+02
5.160000000000000000e+02,6.608416700000000219e+02
5.170000000000000000e+02,6.610068400000000111e+02
5.180000000000000000e+02,6.611709600000000364e+02
5.190000000000000000e+02,6.613336799999999585e+02
5.200000000000000000e+02,6.614963999999999942e+02
5.210000000000000000e+02,6.616574100000000271e+02
5.220000000000000000e+02,6.618185999999999467e+02
5.230000000000000000e+02,6.619777199999999766e+02
5.240000000000000000e+02,6.621367199999999684e+02
5.250000000000000000e+02,6.622948599999999715e+02
5.260000000000000000e+02,6.624517200000000230e+02
5.270000000000000000e+02,6.626085199999999986e+02
5.280000000000000000e+02,6.627639199999999846e+02
5.290000000000000000e+02,6.629184000000000196e+02
5.300000000000000000e+02,6.630727500000000418e+02
5.310000000000000000e+02,6.632255199999999604e+02
5.320000000000000000e+02,6.633780500000000302e+02
5.330000000000000000e+02,6.635295999999999594e+02
5.340000000000000000e+02,6.636798099999999749e+02
5.350000000000000000e+02,6.638301400000000285e+02
5.360000000000000000e+02,6.639788800000000037e+02
5.370000000000000000e+02,6.641269499999999653e+02
5.380000000000000000e+02,6.642749000000000024e+02
5.390000000000000000e+02,6.644211400000000367e+02
5.400000000000000000e+02,6.645676899999999705e+02
5.410000000000000000e+02,6.647121600000000399e+02
5.420000000000000000e+02,6.648566299999999956e+02
5.430000000000000000e+02,6.650003100000000131e+02
5.440000000000000000e+02,6.651428799999999910e+02
5.450000000000000000e+02,6.652849700000000439e+02
5.460000000000000000e+02,6.654264500000000453e+02
5.470000000000000000e+02,6.655667099999999436e+02
5.480000000000000000e+02,6.657063000000000557e+02
5.490000000000000000e+02,6.658457600000000411e+02
5.500000000000000000e+02,6.659834600000000364e+02
5.510000000000000000e+02,6.661217699999999695e+02
5.520000000000000000e+02,6.662583600000000388e+02
5.530000000000000000e+02,6.663939800000000560e+02
5.540000000000000000e+02,6.665300300000000107e+02
5.550000000000000000e+02,6.666641200000000254e+02
5.560000000000000000e+02,6.667979100000000017e+02
5.570000000000000000e+02,6.669316400000000158e+02
5.580000000000000000e+02,6.670637199999999893e+02
5.590000000000000000e+02,6.671952499999999873e+02
5.600000000000000000e+02,6.673267200000000230e+02
5.610000000000000000e+02,6.674568500000000313e+02
5.620000000000000000e+02,6.675863000000000511e+02
5.630000000000000000e+02,6.677156999999999698e+02
5.640000000000000000e+02,6.678436900000000378e+02
5.650000000000000000e+02,6.679710700000000543e+02
5.660000000000000000e+02,6.680983300000000327e+02
5.670000000000000000e+02,6.682243700000000217e+02
5.680000000000000000e+02,6.683494299999999839e+02
5.690000000000000000e+02,6.684749100000000226e+02
5.700000000000000000e+02,6.685988200000000461e+02
5.710000000000000000e+02,6.687219199999999546e+02
5.720000000000000000e+02,6.688447300000000268e+02
5.730000000000000000e+02,6.689673500000000104e+02
5.740000000000000000e+02,6.690882599999999911e+02
5.750000000000000000e+02,6.692092300000000478e+02
5.760000000000000000e+02,6.693297700000000532e+02
5.770000000000000000e+02,6.694487900000000309e+02
5.780000000000000000e+02,6.695677500000000464e+02
5.790000000000000000e+02,6.696862800000000107e+02
5.800000000000000000e+02,6.698036499999999478e+02
5.810000000000000000e+02,6.699207199999999602e+02
5.820000000000000000e+02,6.700372300000000223e+02
5.830000000000000000e+02,6.701526499999999942e+02
5.840000000000000000e+02,6.702678799999999910e+02
5.850000000000000000e+02,6.703818400000000111e+02
5.860000000000000000e+02,6.704960899999999810e+02
5.870000000000000000e+02,6.706092499999999745e+02
5.880000000000000000e+02,6.707214999999999918e+02
5.890000000000000000e+02,6.708339200000000346e+02
5.900000000000000000e+02,6.709452499999999873e+02
5.910000000000000000e+02,6.710556599999999889e+02
5.920000000000000000e+02,6.711656500000000278e+02
5.930000000000000000e+02,6.712758800000000292e+02
5.940000000000000000e+02,6.713843399999999519e+02
5.950000000000000000e+02,6.714927400000000262e+02
5.960000000000000000e+02,6.716004599999999982e+02
5.970000000000000000e+02,6.717079499999999825e+02
5.980000000000000000e+02,6.718142699999999650e+02
5.990000000000000000e+02,6.719203499999999849e+02