# Time [s], Temperature [C]
1.000000000000000000e+00,2.499997099999999861e+01
2.000000000000000000e+00,3.342040999999999684e+01
3.000000000000000000e+00,3.825250199999999978e+01
4.000000000000000000e+00,4.216481000000000279e+01
5.000000000000000000e+00,4.544451500000000266e+01
6.000000000000000000e+00,4.832794599999999718e+01
7.000000000000000000e+00,5.091709099999999921e+01
8.000000000000000000e+00,5.328148300000000148e+01
9.000000000000000000e+00,5.546620599999999968e+01
1.000000000000000000e+01,5.750316200000000322e+01
1.100000000000000000e+01,5.941552399999999778e+01
1.200000000000000000e+01,6.122153500000000292e+01
1.300000000000000000e+01,6.293475699999999762e+01
1.400000000000000000e+01,6.456690999999999292e+01
1.500000000000000000e+01,6.612675500000000284e+01
1.600000000000000000e+01,6.762186400000000219e+01
1.700000000000000000e+01,6.905861699999999814e+01
1.800000000000000000e+01,7.044237499999999841e+01
1.900000000000000000e+01,7.177764100000000269e+01
2.000000000000000000e+01,7.306850400000000434e+01
2.100000000000000000e+01,7.431842799999999727e+01
2.200000000000000000e+01,7.553030400000000100e+01
2.300000000000000000e+01,7.670701599999999587e+01
2.400000000000000000e+01,7.785066199999999981e+01
2.500000000000000000e+01,7.896344000000000563e+01
2.600000000000000000e+01,8.004742400000000657e+01
2.700000000000000000e+01,8.110427099999999712e+01
2.800000000000000000e+01,8.213532999999999618e+01
2.900000000000000000e+01,8.314242600000000039e+01
3.000000000000000000e+01,8.412654100000000312e+01
3.100000000000000000e+01,8.508887500000000159e+01
3.200000000000000000e+01,8.603068500000000540e+01
3.300000000000000000e+01,8.695278199999999913e+01
3.400000000000000000e+01,8.785611699999999757e+01
3.500000000000000000e+01,8.874182899999999563e+01
3.600000000000000000e+01,8.961045099999999763e+01
3.700000000000000000e+01,9.046256300000000294e+01
3.800000000000000000e+01,9.129910300000000234e+01
3.900000000000000000e+01,9.212069700000000694e+01
4.000000000000000000e+01,9.292791699999999366e+01
4.100000000000000000e+01,9.372143599999999708e+01
4.200000000000000000e+01,9.450160200000000543e+01
4.300000000000000000e+01,9.526895100000000127e+01
4.400000000000000000e+01,9.602407100000000639e+01
4.500000000000000000e+01,9.676724199999999598e+01
4.600000000000000000e+01,9.749892400000000237e+01
4.700000000000000000e+01,9.821974899999999309e+01
4.800000000000000000e+01,9.892989300000000696e+01
4.900000000000000000e+01,9.962961599999999862e+01
5.000000000000000000e+01,1.003194900000000018e+02
5.100000000000000000e+01,1.009996900000000011e+02
5.200000000000000000e+01,1.016706199999999995e+02
5.300000000000000000e+01,1.023326500000000010e+02
5.400000000000000000e+01,1.029858200000000039e+02
5.500000000000000000e+01,1.036306199999999933e+02
5.600000000000000000e+01,1.042673000000000059e+02
5.700000000000000000e+01,1.048958899999999943e+02
5.800000000000000000e+01,1.055168699999999973e+02
5.900000000000000000e+01,1.061304499999999962e+02
6.000000000000000000e+01,1.067367600000000039e+02
6.100000000000000000e+01,1.073360399999999970e+02
6.200000000000000000e+01,1.079285699999999935e+02
6.300000000000000000e+01,1.085144399999999933e+02
6.400000000000000000e+01,1.090938299999999970e+02
6.500000000000000000e+01,1.096669200000000046e+02
6.600000000000000000e+01,1.102341499999999996e+02
6.700000000000000000e+01,1.107953600000000023e+02
6.800000000000000000e+01,1.113509399999999943e+02
6.900000000000000000e+01,1.119009999999999962e+02
7.000000000000000000e+01,1.124454400000000049e+02
7.100000000000000000e+01,1.129848899999999929e+02
7.200000000000000000e+01,1.135189199999999943e+02
7.300000000000000000e+01,1.140481599999999958e+02
7.400000000000000000e+01,1.145726499999999959e+02
7.500000000000000000e+01,1.150921699999999959e+02
7.600000000000000000e+01,1.156072699999999998e+02
7.700000000000000000e+01,1.161179699999999997e+02
7.800000000000000000e+01,1.166241500000000002e+02
7.900000000000000000e+01,1.171260500000000064e+02
8.000000000000000000e+01,1.176240800000000064e+02
8.100000000000000000e+01,1.181178900000000027e+02
8.200000000000000000e+01,1.186077300000000037e+02
8.300000000000000000e+01,1.190940099999999973e+02
8.400000000000000000e+01,1.195765499999999975e+02
8.500000000000000000e+01,1.200552600000000041e+02
8.600000000000000000e+01,1.205305900000000037e+02
8.700000000000000000e+01,1.210023900000000054e+02
8.800000000000000000e+01,1.214709000000000003e+02
8.900000000000000000e+01,1.219360199999999992e+02
9.000000000000000000e+01,1.223980399999999946e+02
9.100000000000000000e+01,1.228569600000000008e+02
9.200000000000000000e+01,1.233128999999999991e+02
9.300000000000000000e+01,1.237656900000000064e+02
9.400000000000000000e+01,1.242155300000000011e+02
9.500000000000000000e+01,1.246627100000000041e+02
9.600000000000000000e+01,1.251071299999999979e+02
9.700000000000000000e+01,1.255488399999999984e+02
9.800000000000000000e+01,1.259879499999999979e+02
9.900000000000000000e+01,1.264244199999999978e+02
1.000000000000000000e+02,1.268584000000000032e+02
1.010000000000000000e+02,1.272897300000000058e+02
1.020000000000000000e+02,1.277187899999999985e+02
1.030000000000000000e+02,1.281455100000000016e+02
1.040000000000000000e+02,1.285699600000000089e+02
1.050000000000000000e+02,1.289921099999999967e+02
1.060000000000000000e+02,1.294120800000000031e+02
1.070000000000000000e+02,1.298299399999999935e+02
1.080000000000000000e+02,1.302456699999999898e+02
1.090000000000000000e+02,1.306593000000000018e+02
1.100000000000000000e+02,1.310709799999999916e+02
1.110000000000000000e+02,1.314805000000000064e+02
1.120000000000000000e+02,1.318881700000000023e+02
1.130000000000000000e+02,1.322939800000000048e+02
1.140000000000000000e+02,1.326978799999999978e+02
1.150000000000000000e+02,1.330999500000000069e+02
1.160000000000000000e+02,1.335002900000000068e+02
1.170000000000000000e+02,1.338988300000000038e+02
1.180000000000000000e+02,1.342956499999999949e+02
1.190000000000000000e+02,1.346908599999999865e+02
1.200000000000000000e+02,1.350843700000000069e+02
1.210000000000000000e+02,1.354762299999999868e+02
1.220000000000000000e+02,1.358665599999999927e+02
1.230000000000000000e+02,1.362552900000000022e+02
1.240000000000000000e+02,1.366424599999999998e+02
1.250000000000000000e+02,1.370281699999999887e+02
1.260000000000000000e+02,1.374123400000000004e+02
1.270000000000000000e+02,1.377950099999999907e+02
1.280000000000000000e+02,1.381763200000000040e+02
1.290000000000000000e+02,1.385561800000000119e+02
1.300000000000000000e+02,1.389345999999999890e+02
1.310000000000000000e+02,1.393117100000000050e+02
1.320000000000000000e+02,1.396874400000000094e+02
1.330000000000000000e+02,1.400618599999999958e+02
1.340000000000000000e+02,1.404350300000000118e+02
1.350000000000000000e+02,1.408068800000000067e+02
1.360000000000000000e+02,1.411774699999999996e+02
1.370000000000000000e+02,1.415468600000000094e+02
1.380000000000000000e+02,1.419149800000000141e+02
1.390000000000000000e+02,1.422818900000000042e+02
1.400000000000000000e+02,1.426476600000000019e+02
1.410000000000000000e+02,1.430123100000000136e+02
1.420000000000000000e+02,1.433756899999999916e+02
1.430000000000000000e+02,1.437380499999999870e+02
1.440000000000000000e+02,1.440992599999999868e+02
1.450000000000000000e+02,1.444593199999999911e+02
1.460000000000000000e+02,1.448183300000000031e+02
1.470000000000000000e+02,1.451763500000000136e+02
1.480000000000000000e+02,1.455331999999999937e+02
1.490000000000000000e+02,1.458890199999999879e+02
1.500000000000000000e+02,1.462437400000000025e+02
1.510000000000000000e+02,1.465974999999999966e+02
1.520000000000000000e+02,1.469501999999999953e+02
1.530000000000000000e+02,1.473018600000000049e+02
1.540000000000000000e+02,1.476525100000000066e+02
1.550000000000000000e+02,1.480022400000000005e+02
1.560000000000000000e+02,1.483509699999999896e+02
1.570000000000000000e+02,1.486987000000000023e+02
1.580000000000000000e+02,1.490455499999999915e+02
1.590000000000000000e+02,1.493914000000000044e+02
1.600000000000000000e+02,1.497365399999999909e+02
1.610000000000000000e+02,1.500806300000000135e+02
1.620000000000000000e+02,1.504237500000000125e+02
1.630000000000000000e+02,1.507659500000000037e+02
1.640000000000000000e+02,1.511073199999999872e+02
1.650000000000000000e+02,1.514478000000000009e+02
1.660000000000000000e+02,1.517873400000000004e+02
1.670000000000000000e+02,1.521261399999999924e+02
1.680000000000000000e+02,1.524639400000000080e+02
1.690000000000000000e+02,1.528010299999999972e+02
1.700000000000000000e+02,1.531372499999999945e+02
1.710000000000000000e+02,1.534725599999999872e+02
1.720000000000000000e+02,1.538070199999999943e+02
1.730000000000000000e+02,1.541407000000000096e+02
1.740000000000000000e+02,1.544735900000000015e+02
1.750000000000000000e+02,1.548055400000000077e+02
1.760000000000000000e+02,1.551367999999999938e+02
1.770000000000000000e+02,1.554673500000000104e+02
1.780000000000000000e+02,1.557969999999999970e+02
1.790000000000000000e+02,1.561258500000000140e+02
1.800000000000000000e+02,1.564539800000000014e+02
1.810000000000000000e+02,1.567811900000000094e+02
1.820000000000000000e+02,1.571076799999999878e+02
1.830000000000000000e+02,1.574333599999999933e+02
1.840000000000000000e+02,1.577583899999999915e+02
1.850000000000000000e+02,1.580826900000000137e+02
1.860000000000000000e+02,1.584062500000000000e+02
1.870000000000000000e+02,1.587289299999999912e+02
1.880000000000000000e+02,1.590509000000000128e+02
1.890000000000000000e+02,1.593720999999999890e+02
1.900000000000000000e+02,1.596925200000000018e+02
1.910000000000000000e+02,1.600124700000000075e+02
1.920000000000000000e+02,1.603314699999999959e+02
1.930000000000000000e+02,1.606497799999999927e+02
1.940000000000000000e+02,1.609674200000000042e+02
1.950000000000000000e+02,1.612843000000000018e+02
1.960000000000000000e+02,1.616004900000000077e+02
1.970000000000000000e+02,1.619160500000000127e+02
1.980000000000000000e+02,1.622307700000000068e+02
1.990000000000000000e+02,1.625447499999999934e+02
2.000000000000000000e+02,1.628581200000000138e+02
2.010000000000000000e+02,1.631708199999999920e+02
2.020000000000000000e+02,1.634827099999999973e+02
2.030000000000000000e+02,1.637940999999999860e+02
2.040000000000000000e+02,1.641046800000000019e+02
2.050000000000000000e+02,1.644145399999999881e+02
2.060000000000000000e+02,1.647238299999999924e+02
2.070000000000000000e+02,1.650323500000000081e+02
2.080000000000000000e+02,1.653403000000000134e+02
2.090000000000000000e+02,1.656475399999999922e+02
2.100000000000000000e+02,1.659541199999999890e+02
2.110000000000000000e+02,1.662598999999999876e+02
2.120000000000000000e+02,1.665650799999999947e+02
2.130000000000000000e+02,1.668696899999999914e+02
2.140000000000000000e+02,1.671735700000000122e+02
2.150000000000000000e+02,1.674768699999999910e+02
2.160000000000000000e+02,1.677793700000000001e+02
2.170000000000000000e+02,1.680812200000000018e+02
2.180000000000000000e+02,1.683826099999999997e+02
2.190000000000000000e+02,1.686833300000000122e+02
2.200000000000000000e+02,1.689832499999999982e+02
2.210000000000000000e+02,1.692825599999999895e+02
2.220000000000000000e+02,1.695811799999999891e+02
2.230000000000000000e+02,1.698793300000000102e+02
2.240000000000000000e+02,1.701767700000000048e+02
2.250000000000000000e+02,1.704735599999999920e+02
2.260000000000000000e+02,1.707696400000000096e+02
2.270000000000000000e+02,1.710652900000000045e+02
2.280000000000000000e+02,1.713601099999999917e+02
2.290000000000000000e+02,1.716543100000000095e+02
2.300000000000000000e+02,1.719479699999999980e+02
2.310000000000000000e+02,1.722410000000000139e+02
2.320000000000000000e+02,1.725334000000000003e+02
2.330000000000000000e+02,1.728251799999999889e+02
2.340000000000000000e+02,1.731162899999999922e+02
2.350000000000000000e+02,1.734068499999999915e+02
2.360000000000000000e+02,1.736968400000000088e+02
2.370000000000000000e+02,1.739861300000000028e+02
2.380000000000000000e+02,1.742747500000000116e+02
2.390000000000000000e+02,1.745628800000000069e+02
2.400000000000000000e+02,1.748504000000000076e+02
2.410000000000000000e+02,1.751372100000000103e+02
2.420000000000000000e+02,1.754234899999999868e+02
2.430000000000000000e+02,1.757090900000000033e+02
2.440000000000000000e+02,1.759941900000000032e+02
2.450000000000000000e+02,1.762786399999999958e+02
2.460000000000000000e+02,1.765624799999999937e+02
2.470000000000000000e+02,1.768456299999999999e+02
2.480000000000000000e+02,1.771283699999999897e+02
2.490000000000000000e+02,1.774104800000000068e+02
2.500000000000000000e+02,1.776918300000000102e+02
2.510000000000000000e+02,1.779726699999999937e+02
2.520000000000000000e+02,1.782529900000000112e+02
2.530000000000000000e+02,1.785327100000000087e+02
2.540000000000000000e+02,1.788117699999999957e+02
2.550000000000000000e+02,1.790901800000000037e+02
2.560000000000000000e+02,1.793681899999999985e+02
2.570000000000000000e+02,1.796455100000000016e+02
2.580000000000000000e+02,1.799222000000000037e+02
2.590000000000000000e+02,1.801984300000000019e+02
2.600000000000000000e+02,1.804739700000000084e+02
2.610000000000000000e+02,1.807489199999999983e+02
2.620000000000000000e+02,1.810232699999999966e+02
2.630000000000000000e+02,1.812972300000000132e+02
2.640000000000000000e+02,1.815704000000000065e+02
2.650000000000000000e+02,1.818430199999999957e+02
2.660000000000000000e+02,1.821151700000000062e+02
2.670000000000000000e+02,1.823867199999999968e+02
2.680000000000000000e+02,1.826576200000000085e+02
2.690000000000000000e+02,1.829280699999999911e+02
2.700000000000000000e+02,1.831978900000000010e+02
2.710000000000000000e+02,1.834670900000000131e+02
2.720000000000000000e+02,1.837357900000000086e+02
2.730000000000000000e+02,1.840039199999999937e+02
2.740000000000000000e+02,1.842714100000000030e+02
2.750000000000000000e+02,1.845384200000000021e+02
2.760000000000000000e+02,1.848047500000000127e+02
2.770000000000000000e+02,1.850706199999999910e+02
2.780000000000000000e+02,1.853359399999999937e+02
2.790000000000000000e+02,1.856005700000000047e+02
2.800000000000000000e+02,1.858647599999999898e+02
2.810000000000000000e+02,1.861284300000000087e+02
2.820000000000000000e+02,1.863913900000000012e+02
2.830000000000000000e+02,1.866538999999999930e+02
2.840000000000000000e+02,1.869159199999999998e+02
2.850000000000000000e+02,1.871772200000000055e+02
2.860000000000000000e+02,1.874379399999999976e+02
2.870000000000000000e+02,1.876983199999999954e+02
2.880000000000000000e+02,1.879579799999999921e+02
2.890000000000000000e+02,1.882170600000000036e+02
2.900000000000000000e+02,1.884758099999999956e+02
2.910000000000000000e+02,1.887338300000000118e+02
2.920000000000000000e+02,1.889912600000000111e+02
2.930000000000000000e+02,1.892483400000000131e+02
2.940000000000000000e+02,1.895047099999999887e+02
2.950000000000000000e+02,1.897605299999999886e+02
2.960000000000000000e+02,1.900159800000000132e+02
2.970000000000000000e+02,1.902707100000000082e+02
2.980000000000000000e+02,1.905249000000000024e+02
2.990000000000000000e+02,1.907787199999999928e+02
3.000000000000000000e+02,1.910318300000000136e+02
3.010000000000000000e+02,1.912844100000000083e+02
3.020000000000000000e+02,1.915366099999999960e+02
3.030000000000000000e+02,1.917880600000000015e+02
3.040000000000000000e+02,1.920390500000000031e+02
3.050000000000000000e+02,1.922895800000000008e+02
3.060000000000000000e+02,1.925394699999999943e+02
3.070000000000000000e+02,1.927888599999999997e+02
3.080000000000000000e+02,1.930378100000000074e+02
3.090000000000000000e+02,1.932861200000000110e+02
3.100000000000000000e+02,1.935339099999999917e+02
3.110000000000000000e+02,1.937812500000000000e+02
3.120000000000000000e+02,1.940280199999999979e+02
3.130000000000000000e+02,1.942741499999999917e+02
3.140000000000000000e+02,1.945199299999999880e+02
3.150000000000000000e+02,1.947651099999999929e+02
3.160000000000000000e+02,1.950097700000000032e+02
3.170000000000000000e+02,1.952538900000000126e+02
3.180000000000000000e+02,1.954974699999999928e+02
3.190000000000000000e+02,1.957405400000000100e+02
3.200000000000000000e+02,1.959831499999999949e+02
3.210000000000000000e+02,1.962250999999999976e+02
3.220000000000000000e+02,1.964666300000000092e+02
3.230000000000000000e+02,1.967076900000000137e+02
3.240000000000000000e+02,1.969480700000000013e+02
3.250000000000000000e+02,1.971880999999999915e+02
3.260000000000000000e+02,1.974275399999999934e+02
3.270000000000000000e+02,1.976664900000000102e+02
3.280000000000000000e+02,1.979049100000000010e+02
3.290000000000000000e+02,1.981427799999999877e+02
3.300000000000000000e+02,1.983802300000000116e+02
3.310000000000000000e+02,1.986170299999999997e+02
3.320000000000000000e+02,1.988533799999999871e+02
3.330000000000000000e+02,1.990892900000000054e+02
3.340000000000000000e+02,1.993245499999999879e+02
3.350000000000000000e+02,1.995595199999999920e+02
3.360000000000000000e+02,1.997938100000000077e+02
3.370000000000000000e+02,2.000275900000000036e+02
3.380000000000000000e+02,2.002610200000000020e+02
3.390000000000000000e+02,2.004937700000000120e+02
3.400000000000000000e+02,2.007260699999999929e+02
3.410000000000000000e+02,2.009579200000000014e+02
3.420000000000000000e+02,2.011891799999999932e+02
3.430000000000000000e+02,2.014200600000000065e+02
3.440000000000000000e+02,2.016503299999999967e+02
3.450000000000000000e+02,2.018801400000000115e+02
3.460000000000000000e+02,2.021094400000000064e+02
3.470000000000000000e+02,2.023383000000000038e+02
3.480000000000000000e+02,2.025666400000000067e+02
3.490000000000000000e+02,2.027943899999999928e+02
3.500000000000000000e+02,2.030217399999999941e+02
3.510000000000000000e+02,2.032485800000000040e+02
3.520000000000000000e+02,2.034748999999999910e+02
3.530000000000000000e+02,2.037007900000000120e+02
3.540000000000000000e+02,2.039261600000000101e+02
3.550000000000000000e+02,2.041509599999999978e+02
3.560000000000000000e+02,2.043754000000000133e+02
3.570000000000000000e+02,2.045992899999999963e+02
3.580000000000000000e+02,2.048226899999999944e+02
3.590000000000000000e+02,2.050456499999999949e+02
3.600000000000000000e+02,2.052679899999999975e+02
3.610000000000000000e+02,2.054899699999999996e+02
3.620000000000000000e+02,2.057113999999999976e+02
3.630000000000000000e+02,2.059324000000000012e+02
3.640000000000000000e+02,2.061528900000000135e+02
3.650000000000000000e+02,2.063729199999999935e+02
3.660000000000000000e+02,2.065924699999999916e+02
3.670000000000000000e+02,2.068114300000000014e+02
3.680000000000000000e+02,2.070301200000000108e+02
3.690000000000000000e+02,2.072481699999999876e+02
3.700000000000000000e+02,2.074658200000000079e+02
3.710000000000000000e+02,2.076829400000000021e+02
3.720000000000000000e+02,2.078995500000000050e+02
3.730000000000000000e+02,2.081157800000000009e+02
3.740000000000000000e+02,2.083314799999999991e+02
3.750000000000000000e+02,2.085467800000000125e+02
3.760000000000000000e+02,2.087614700000000028e+02
3.770000000000000000e+02,2.089758899999999926e+02
3.780000000000000000e+02,2.091896500000000003e+02
3.790000000000000000e+02,2.094030899999999917e+02
3.800000000000000000e+02,2.096159499999999980e+02
3.810000000000000000e+02,2.098283700000000067e+02
3.820000000000000000e+02,2.100403100000000052e+02
3.830000000000000000e+02,2.102518599999999935e+02
3.840000000000000000e+02,2.104628899999999874e+02
3.850000000000000000e+02,2.106734199999999930e+02
3.860000000000000000e+02,2.108836200000000076e+02
3.870000000000000000e+02,2.110931899999999928e+02
3.880000000000000000e+02,2.113024299999999869e+02
3.890000000000000000e+02,2.115111200000000053e+02
3.900000000000000000e+02,2.117193800000000010e+02
3.910000000000000000e+02,2.119271500000000117e+02
3.920000000000000000e+02,2.121345200000000091e+02
3.930000000000000000e+02,2.123414199999999994e+02
3.940000000000000000e+02,2.125478200000000015e+02
3.950000000000000000e+02,2.127538299999999936e+02
3.960000000000000000e+02,2.129593700000000069e+02
3.970000000000000000e+02,2.131644100000000037e+02
3.980000000000000000e+02,2.133690599999999904e+02
3.990000000000000000e+02,2.135732299999999952e+02
4.000000000000000000e+02,2.137769499999999994e+02
4.010000000000000000e+02,2.139801500000000090e+02
4.020000000000000000e+02,2.141830099999999959e+02
4.030000000000000000e+02,2.143852799999999945e+02
4.040000000000000000e+02,2.145872999999999990e+02
4.050000000000000000e+02,2.147887000000000057e+02
4.060000000000000000e+02,2.149897799999999961e+02
4.070000000000000000e+02,2.151903200000000140e+02
4.080000000000000000e+02,2.153905200000000093e+02
4.090000000000000000e+02,2.155901299999999878e+02
4.100000000000000000e+02,2.157894599999999912e+02
4.110000000000000000e+02,2.159881900000000030e+02
4.120000000000000000e+02,2.161865999999999985e+02
4.130000000000000000e+02,2.163845100000000059e+02
4.140000000000000000e+02,2.165820600000000127e+02
4.150000000000000000e+02,2.167790400000000091e+02
4.160000000000000000e+02,2.169757500000000050e+02
4.170000000000000000e+02,2.171718600000000094e+02
4.180000000000000000e+02,2.173675700000000006e+02
4.190000000000000000e+02,2.175629000000000133e+02
4.200000000000000000e+02,2.177577699999999936e+02
4.210000000000000000e+02,2.179521900000000016e+02
4.220000000000000000e+02,2.181462199999999996e+02
4.230000000000000000e+02,2.183397699999999872e+02
4.240000000000000000e+02,2.185329000000000121e+02
4.250000000000000000e+02,2.187256299999999953e+02
4.260000000000000000e+02,2.189179100000000062e+02
4.270000000000000000e+02,2.191097399999999880e+02
4.280000000000000000e+02,2.193012099999999975e+02
4.290000000000000000e+02,2.194921999999999969e+02
4.300000000000000000e+02,2.196827700000000050e+02
4.310000000000000000e+02,2.198729600000000062e+02
4.320000000000000000e+02,2.200626800000000003e+02
4.330000000000000000e+02,2.202519700000000000e+02
4.340000000000000000e+02,2.204408699999999897e+02
4.350000000000000000e+02,2.206293200000000070e+02
4.360000000000000000e+02,2.208173500000000047e+02
4.370000000000000000e+02,2.210049699999999859e+02
4.380000000000000000e+02,2.211921700000000044e+02
4.390000000000000000e+02,2.213789400000000001e+02
4.400000000000000000e+02,2.215653399999999920e+02
4.410000000000000000e+02,2.217512700000000052e+02
4.420000000000000000e+02,2.219367799999999988e+02
4.430000000000000000e+02,2.221219600000000014e+02
4.440000000000000000e+02,2.223065899999999999e+02
4.450000000000000000e+02,2.224909100000000137e+02
4.460000000000000000e+02,2.226747400000000141e+02
4.470000000000000000e+02,2.228582600000000014e+02
4.480000000000000000e+02,2.230413100000000099e+02
4.490000000000000000e+02,2.232239999999999895e+02
4.500000000000000000e+02,2.234062199999999905e+02
4.510000000000000000e+02,2.235880300000000034e+02
4.520000000000000000e+02,2.237694500000000062e+02
4.530000000000000000e+02,2.239504499999999894e+02
4.540000000000000000e+02,2.241310300000000097e+02
4.550000000000000000e+02,2.243112500000000011e+02
4.560000000000000000e+02,2.244910600000000045e+02
4.570000000000000000e+02,2.246703799999999944e+02
4.580000000000000000e+02,2.248494399999999871e+02
4.590000000000000000e+02,2.250279700000000105e+02
4.600000000000000000e+02,2.252062099999999987e+02
4.610000000000000000e+02,2.253839700000000050e+02
4.620000000000000000e+02,2.255614199999999983e+02
4.630000000000000000e+02,2.257383299999999906e+02
4.640000000000000000e+02,2.259149899999999889e+02
4.650000000000000000e+02,2.260911299999999926e+02
4.660000000000000000e+02,2.262669500000000085e+02
4.670000000000000000e+02,2.264423999999999921e+02
4.680000000000000000e+02,2.266173400000000129e+02
4.690000000000000000e+02,2.267919799999999952e+02
4.700000000000000000e+02,2.269661600000000021e+02
4.710000000000000000e+02,2.271400099999999895e+02
4.720000000000000000e+02,2.273133699999999919e+02
4.730000000000000000e+02,2.274865000000000066e+02
4.740000000000000000e+02,2.276590999999999951e+02
4.750000000000000000e+02,2.278313300000000083e+02
4.760000000000000000e+02,2.280032199999999989e+02
4.770000000000000000e+02,2.281746799999999951e+02
4.780000000000000000e+02,2.283458100000000002e+02
4.790000000000000000e+02,2.285164900000000046e+02
4.800000000000000000e+02,2.286868399999999895e+02
4.810000000000000000e+02,2.288566999999999894e+02
4.820000000000000000e+02,2.290263199999999983e+02
4.830000000000000000e+02,2.291954299999999876e+02
4.840000000000000000e+02,2.293641800000000046e+02
4.850000000000000000e+02,2.295326200000000085e+02
4.860000000000000000e+02,2.297006399999999928e+02
4.870000000000000000e+02,2.298682599999999923e+02
4.880000000000000000e+02,2.300355399999999975e+02
4.890000000000000000e+02,2.302024700000000053e+02
4.900000000000000000e+02,2.303689300000000060e+02
4.910000000000000000e+02,2.305350599999999872e+02
4.920000000000000000e+02,2.307008099999999899e+02
4.930000000000000000e+02,2.308661500000000046e+02
4.940000000000000000e+02,2.310311599999999999e+02
4.950000000000000000e+02,2.311957899999999881e+02
4.960000000000000000e+02,2.313600299999999947e+02
4.970000000000000000e+02,2.315239300000000071e+02
4.980000000000000000e+02,2.316874099999999999e+02
4.990000000000000000e+02,2.318505100000000141e+02
5.000000000000000000e+02,2.320132800000000088e+02
5.010000000000000000e+02,2.321756399999999871e+02
5.020000000000000000e+02,2.323376299999999901e+02
5.030000000000000000e+02,2.324993000000000052e+02
5.040000000000000000e+02,2.326605700000000070e+02
5.050000000000000000e+02,2.328214600000000019e+02
5.060000000000000000e+02,2.329820100000000025e+02
5.070000000000000000e+02,2.331421799999999962e+02
5.080000000000000000e+02,2.333019099999999924e+02
5.090000000000000000e+02,2.334614300000000071e+02
5.100000000000000000e+02,2.336204999999999927e+02
5.110000000000000000e+02,2.337791899999999998e+02
5.120000000000000000e+02,2.339375799999999970e+02
5.130000000000000000e+02,2.340954900000000123e+02
5.140000000000000000e+02,2.342531400000000019e+02
5.150000000000000000e+02,2.344104299999999910e+02
5.160000000000000000e+02,2.345673400000000015e+02
5.170000000000000000e+02,2.347238600000000019e+02
5.180000000000000000e+02,2.348799999999999955e+02
5.190000000000000000e+02,2.350358699999999885e+02
5.200000000000000000e+02,2.351912499999999966e+02
5.210000000000000000e+02,2.353464400000000012e+02
5.220000000000000000e+02,2.355012099999999862e+02
5.230000000000000000e+02,2.356555299999999988e+02
5.240000000000000000e+02,2.358096299999999985e+02
5.250000000000000000e+02,2.359632599999999911e+02
5.260000000000000000e+02,2.361165499999999895e+02
5.270000000000000000e+02,2.362695899999999938e+02
5.280000000000000000e+02,2.364221599999999910e+02
5.290000000000000000e+02,2.365744500000000130e+02
5.300000000000000000e+02,2.367263599999999997e+02
5.310000000000000000e+02,2.368779100000000142e+02
5.320000000000000000e+02,2.370291599999999903e+02
5.330000000000000000e+02,2.371799900000000036e+02
5.340000000000000000e+02,2.373305400000000134e+02
5.350000000000000000e+02,2.374806499999999971e+02
5.360000000000000000e+02,2.376304900000000089e+02
5.370000000000000000e+02,2.377800100000000043e+02
5.380000000000000000e+02,2.379290900000000022e+02
5.390000000000000000e+02,2.380778799999999933e+02
5.400000000000000000e+02,2.382263199999999870e+02
5.410000000000000000e+02,2.383743699999999990e+02
5.420000000000000000e+02,2.385221899999999948e+02
5.430000000000000000e+02,2.386695400000000120e+02
5.440000000000000000e+02,2.388165600000000097e+02
5.450000000000000000e+02,2.389633599999999944e+02
5.460000000000000000e+02,2.391097100000000069e+02
5.470000000000000000e+02,2.392557099999999934e+02
5.480000000000000000e+02,2.394014300000000048e+02
5.490000000000000000e+02,2.395467500000000030e+02
5.500000000000000000e+02,2.396918200000000070e+02
5.510000000000000000e+02,2.398364899999999977e+02
5.520000000000000000e+02,2.399807999999999879e+02
5.530000000000000000e+02,2.401247899999999902e+02
5.540000000000000000e+02,2.402684600000000046e+02
5.550000000000000000e+02,2.404117999999999995e+02
5.560000000000000000e+02,2.405547799999999938e+02
5.570000000000000000e+02,2.406974500000000035e+02
5.580000000000000000e+02,2.408397500000000093e+02
5.590000000000000000e+02,2.409816999999999894e+02
5.600000000000000000e+02,2.411233799999999974e+02
5.610000000000000000e+02,2.412646900000000016e+02
5.620000000000000000e+02,2.414056699999999864e+02
5.630000000000000000e+02,2.415463399999999865e+02
5.640000000000000000e+02,2.416866599999999892e+02
5.650000000000000000e+02,2.418266399999999976e+02
5.660000000000000000e+02,2.419663400000000024e+02
5.670000000000000000e+02,2.421056700000000035e+02
5.680000000000000000e+02,2.422446600000000103e+02
5.690000000000000000e+02,2.423833600000000104e+02
5.700000000000000000e+02,2.425217000000000098e+02
5.710000000000000000e+02,2.426597099999999898e+02
5.720000000000000000e+02,2.427973599999999976e+02
5.730000000000000000e+02,2.429347699999999861e+02
5.740000000000000000e+02,2.430718099999999993e+02
5.750000000000000000e+02,2.432084999999999866e+02
5.760000000000000000e+02,2.433449099999999987e+02
5.770000000000000000e+02,2.434809600000000103e+02
5.780000000000000000e+02,2.436167399999999930e+02
5.790000000000000000e+02,2.437521800000000098e+02
5.800000000000000000e+02,2.438872700000000009e+02
5.810000000000000000e+02,2.440220799999999883e+02
5.820000000000000000e+02,2.441565400000000068e+02
5.830000000000000000e+02,2.442906600000000026e+02
5.840000000000000000e+02,2.444245300000000043e+02
5.850000000000000000e+02,2.445580300000000022e+02
5.860000000000000000e+02,2.446911499999999933e+02
5.870000000000000000e+02,2.448240499999999997e+02
5.880000000000000000e+02,2.449565900000000056e+02
5.890000000000000000e+02,2.450887600000000077e+02
5.900000000000000000e+02,2.452207500000000095e+02
5.910000000000000000e+02,2.453523600000000044e+02
5.920000000000000000e+02,2.454835799999999892e+02
5.930000000000000000e+02,2.456146200000000022e+02
5.940000000000000000e+02,2.457452900000000113e+02
5.950000000000000000e+02,2.458755800000000136e+02
5.960000000000000000e+02,2.460056600000000060e+02
5.970000000000000000e+02,2.461353900000000010e+02
5.980000000000000000e+02,2.462647399999999891e+02
5.990000000000000000e+02,2.463938799999999958e+02