# Time [s], Temperature [C]
1.000000000000000000e+00,2.500000000000000000e+01
2.000000000000000000e+00,2.500000000000000000e+01
3.000000000000000000e+00,2.500000000000000000e+01
4.000000000000000000e+00,2.500000000000000000e+01
5.000000000000000000e+00,2.500000000000000000e+01
6.000000000000000000e+00,2.500000599999999906e+01
7.000000000000000000e+00,2.500002100000000027e+01
8.000000000000000000e+00,2.500007099999999838e+01
9.000000000000000000e+00,2.500020800000000065e+01
1.000000000000000000e+01,2.500053399999999826e+01
1.100000000000000000e+01,2.500121899999999897e+01
1.200000000000000000e+01,2.500252000000000052e+01
1.300000000000000000e+01,2.500479500000000144e+01
1.400000000000000000e+01,2.500849300000000142e+01
1.500000000000000000e+01,2.501414700000000124e+01
1.600000000000000000e+01,2.502235399999999998e+01
1.700000000000000000e+01,2.503376000000000090e+01
1.800000000000000000e+01,2.504902799999999985e+01
1.900000000000000000e+01,2.506882900000000092e+01
2.000000000000000000e+01,2.509381700000000137e+01
2.100000000000000000e+01,2.512461300000000008e+01
2.200000000000000000e+01,2.516180800000000062e+01
2.300000000000000000e+01,2.520593600000000123e+01
2.400000000000000000e+01,2.525748799999999861e+01
2.500000000000000000e+01,2.531689300000000031e+01
2.600000000000000000e+01,2.538452699999999851e+01
2.700000000000000000e+01,2.546071399999999940e+01
2.800000000000000000e+01,2.554571699999999979e+01
2.900000000000000000e+01,2.563976100000000002e+01
3.000000000000000000e+01,2.574301300000000126e+01
3.100000000000000000e+01,2.585560399999999959e+01
3.200000000000000000e+01,2.597761300000000162e+01
3.300000000000000000e+01,2.610909699999999845e+01
3.400000000000000000e+01,2.625007799999999847e+01
3.500000000000000000e+01,2.640053199999999833e+01
3.600000000000000000e+01,2.656041899999999956e+01
3.700000000000000000e+01,2.672968699999999842e+01
3.800000000000000000e+01,2.690823599999999871e+01
3.900000000000000000e+01,2.709597399999999823e+01
4.000000000000000000e+01,2.729277000000000086e+01
4.100000000000000000e+01,2.749850100000000097e+01
4.200000000000000000e+01,2.771301100000000162e+01
4.300000000000000000e+01,2.793615899999999996e+01
4.400000000000000000e+01,2.816776799999999881e+01
4.500000000000000000e+01,2.840768100000000018e+01
4.600000000000000000e+01,2.865572399999999931e+01
4.700000000000000000e+01,2.891169400000000067e+01
4.800000000000000000e+01,2.917542999999999864e+01
4.900000000000000000e+01,2.944675300000000107e+01
5.000000000000000000e+01,2.972544699999999906e+01
5.100000000000000000e+01,3.001134300000000010e+01
5.200000000000000000e+01,3.030425299999999922e+01
5.300000000000000000e+01,3.060398100000000099e+01
5.400000000000000000e+01,3.091035700000000119e+01
5.500000000000000000e+01,3.122318299999999880e+01
5.600000000000000000e+01,3.154227399999999903e+01
5.700000000000000000e+01,3.186745499999999964e+01
5.800000000000000000e+01,3.219852800000000315e+01
5.900000000000000000e+01,3.253535099999999858e+01
6.000000000000000000e+01,3.287773899999999827e+01
6.100000000000000000e+01,3.322551700000000352e+01
6.200000000000000000e+01,3.357851000000000141e+01
6.300000000000000000e+01,3.393656200000000212e+01
6.400000000000000000e+01,3.429951899999999654e+01
6.500000000000000000e+01,3.466721700000000084e+01
6.600000000000000000e+01,3.503950900000000246e+01
6.700000000000000000e+01,3.541621399999999653e+01
6.800000000000000000e+01,3.579722199999999788e+01
6.900000000000000000e+01,3.618237700000000245e+01
7.000000000000000000e+01,3.657154100000000341e+01
7.100000000000000000e+01,3.696456899999999735e+01
7.200000000000000000e+01,3.736133600000000143e+01
7.300000000000000000e+01,3.776170299999999713e+01
7.400000000000000000e+01,3.816554599999999908e+01
7.500000000000000000e+01,3.857273899999999855e+01
7.600000000000000000e+01,3.898316200000000009e+01
7.700000000000000000e+01,3.939670199999999767e+01
7.800000000000000000e+01,3.981324000000000041e+01
7.900000000000000000e+01,4.023266199999999770e+01
8.000000000000000000e+01,4.065487699999999904e+01
8.100000000000000000e+01,4.107976500000000186e+01
8.200000000000000000e+01,4.150722900000000237e+01
8.300000000000000000e+01,4.193717199999999679e+01
8.400000000000000000e+01,4.236949200000000104e+01
8.500000000000000000e+01,4.280409600000000125e+01
8.600000000000000000e+01,4.324088700000000074e+01
8.700000000000000000e+01,4.367977900000000346e+01
8.800000000000000000e+01,4.412068200000000218e+01
8.900000000000000000e+01,4.456351899999999944e+01
9.000000000000000000e+01,4.500820900000000080e+01
9.100000000000000000e+01,4.545471599999999768e+01
9.200000000000000000e+01,4.590290499999999696e+01
9.300000000000000000e+01,4.635269900000000121e+01
9.400000000000000000e+01,4.680403900000000306e+01
9.500000000000000000e+01,4.725685500000000161e+01
9.600000000000000000e+01,4.771108199999999755e+01
9.700000000000000000e+01,4.816666399999999726e+01
9.800000000000000000e+01,4.862354700000000207e+01
9.900000000000000000e+01,4.908165699999999987e+01
1.000000000000000000e+02,4.954089700000000107e+01
1.010000000000000000e+02,5.000122799999999756e+01
1.020000000000000000e+02,5.046259700000000237e+01
1.030000000000000000e+02,5.092496100000000325e+01
1.040000000000000000e+02,5.138826000000000249e+01
1.050000000000000000e+02,5.185247400000000084e+01
1.060000000000000000e+02,5.231750499999999704e+01
1.070000000000000000e+02,5.278329500000000252e+01
1.080000000000000000e+02,5.324982099999999718e+01
1.090000000000000000e+02,5.371703300000000070e+01
1.100000000000000000e+02,5.418490200000000101e+01
1.110000000000000000e+02,5.465339300000000122e+01
1.120000000000000000e+02,5.512242100000000278e+01
1.130000000000000000e+02,5.559195299999999662e+01
1.140000000000000000e+02,5.606195799999999707e+01
1.150000000000000000e+02,5.653240600000000171e+01
1.160000000000000000e+02,5.700326900000000308e+01
1.170000000000000000e+02,5.747451399999999921e+01
1.180000000000000000e+02,5.794605299999999914e+01
1.190000000000000000e+02,5.841788499999999829e+01
1.200000000000000000e+02,5.888998399999999833e+01
1.210000000000000000e+02,5.936231999999999687e+01
1.220000000000000000e+02,5.983486599999999811e+01
1.230000000000000000e+02,6.030758999999999759e+01
1.240000000000000000e+02,6.078043399999999963e+01
1.250000000000000000e+02,6.125337999999999994e+01
1.260000000000000000e+02,6.172641800000000245e+01
1.270000000000000000e+02,6.219952800000000082e+01
1.280000000000000000e+02,6.267268800000000084e+01
1.290000000000000000e+02,6.314582099999999798e+01
1.300000000000000000e+02,6.361892699999999934e+01
1.310000000000000000e+02,6.409199499999999716e+01
1.320000000000000000e+02,6.456501000000000090e+01
1.330000000000000000e+02,6.503794899999999757e+01
1.340000000000000000e+02,6.551078800000000513e+01
1.350000000000000000e+02,6.598348199999999508e+01
1.360000000000000000e+02,6.645601700000000278e+01
1.370000000000000000e+02,6.692839100000000485e+01
1.380000000000000000e+02,6.740059700000000475e+01
1.390000000000000000e+02,6.787260399999999549e+01
1.400000000000000000e+02,6.834435999999999467e+01
1.410000000000000000e+02,6.881587199999999882e+01
1.420000000000000000e+02,6.928713199999999972e+01
1.430000000000000000e+02,6.975812500000000682e+01
1.440000000000000000e+02,7.022884399999999516e+01
1.450000000000000000e+02,7.069927199999999345e+01
1.460000000000000000e+02,7.116934999999999434e+01
1.470000000000000000e+02,7.163909900000000164e+01
1.480000000000000000e+02,7.210849799999999732e+01
1.490000000000000000e+02,7.257753800000000410e+01
1.500000000000000000e+02,7.304624200000000656e+01
1.510000000000000000e+02,7.351454900000000237e+01
1.520000000000000000e+02,7.398243700000000445e+01
1.530000000000000000e+02,7.444991299999999512e+01
1.540000000000000000e+02,7.491697700000000282e+01
1.550000000000000000e+02,7.538360600000000034e+01
1.560000000000000000e+02,7.584983099999999467e+01
1.570000000000000000e+02,7.631558200000000625e+01
1.580000000000000000e+02,7.678086100000000158e+01
1.590000000000000000e+02,7.724565900000000340e+01
1.600000000000000000e+02,7.770997599999999750e+01
1.610000000000000000e+02,7.817381299999999555e+01
1.620000000000000000e+02,7.863716900000000010e+01
1.630000000000000000e+02,7.910002900000000636e+01
1.640000000000000000e+02,7.956234700000000259e+01
1.650000000000000000e+02,8.002413199999999449e+01
1.660000000000000000e+02,8.048538999999999533e+01
1.670000000000000000e+02,8.094611399999999435e+01
1.680000000000000000e+02,8.140629599999999755e+01
1.690000000000000000e+02,8.186595199999999295e+01
1.700000000000000000e+02,8.232504299999999375e+01
1.710000000000000000e+02,8.278354600000000119e+01
1.720000000000000000e+02,8.324147800000000075e+01
1.730000000000000000e+02,8.369882200000000694e+01
1.740000000000000000e+02,8.415559399999999357e+01
1.750000000000000000e+02,8.461178599999999506e+01
1.760000000000000000e+02,8.506741300000000194e+01
1.770000000000000000e+02,8.552242999999999995e+01
1.780000000000000000e+02,8.597682199999999852e+01
1.790000000000000000e+02,8.643058800000000019e+01
1.800000000000000000e+02,8.688374299999999550e+01
1.810000000000000000e+02,8.733626599999999485e+01
1.820000000000000000e+02,8.778817700000000457e+01
1.830000000000000000e+02,8.823947099999999466e+01
1.840000000000000000e+02,8.869017800000000307e+01
1.850000000000000000e+02,8.914021300000000281e+01
1.860000000000000000e+02,8.958960000000000434e+01
1.870000000000000000e+02,9.003834500000000673e+01
1.880000000000000000e+02,9.048642700000000616e+01
1.890000000000000000e+02,9.093386800000000392e+01
1.900000000000000000e+02,9.138064599999999871e+01
1.910000000000000000e+02,9.182676700000000380e+01
1.920000000000000000e+02,9.227225500000000125e+01
1.930000000000000000e+02,9.271707899999999825e+01
1.940000000000000000e+02,9.316124000000000649e+01
1.950000000000000000e+02,9.360471300000000383e+01
1.960000000000000000e+02,9.404752299999999821e+01
1.970000000000000000e+02,9.448965499999999906e+01
1.980000000000000000e+02,9.493109900000000323e+01
1.990000000000000000e+02,9.537187199999999621e+01
2.000000000000000000e+02,9.581195800000000418e+01
2.010000000000000000e+02,9.625138900000000319e+01
2.020000000000000000e+02,9.669011700000000076e+01
2.030000000000000000e+02,9.712815899999999658e+01
2.040000000000000000e+02,9.756550599999999918e+01
2.050000000000000000e+02,9.800216700000000003e+01
2.060000000000000000e+02,9.843814100000000167e+01
2.070000000000000000e+02,9.887341299999999933e+01
2.080000000000000000e+02,9.930799100000000124e+01
2.090000000000000000e+02,9.974187499999999318e+01
2.100000000000000000e+02,1.001750600000000020e+02
2.110000000000000000e+02,1.006075400000000002e+02
2.120000000000000000e+02,1.010393100000000004e+02
2.130000000000000000e+02,1.014703999999999979e+02
2.140000000000000000e+02,1.019007799999999975e+02
2.150000000000000000e+02,1.023304499999999990e+02
2.160000000000000000e+02,1.027594100000000026e+02
2.170000000000000000e+02,1.031876800000000003e+02
2.180000000000000000e+02,1.036152199999999937e+02
2.190000000000000000e+02,1.040420600000000064e+02
2.200000000000000000e+02,1.044681900000000070e+02
2.210000000000000000e+02,1.048936099999999954e+02
2.220000000000000000e+02,1.053183099999999968e+02
2.230000000000000000e+02,1.057423000000000002e+02
2.240000000000000000e+02,1.061655800000000056e+02
2.250000000000000000e+02,1.065881499999999988e+02
2.260000000000000000e+02,1.070100099999999941e+02
2.270000000000000000e+02,1.074311399999999992e+02
2.280000000000000000e+02,1.078515699999999953e+02
2.290000000000000000e+02,1.082712700000000012e+02
2.300000000000000000e+02,1.086902699999999982e+02
2.310000000000000000e+02,1.091085400000000050e+02
2.320000000000000000e+02,1.095260999999999996e+02
2.330000000000000000e+02,1.099429300000000040e+02
2.340000000000000000e+02,1.103590499999999963e+02
2.350000000000000000e+02,1.107744399999999985e+02
2.360000000000000000e+02,1.111891300000000058e+02
2.370000000000000000e+02,1.116030899999999946e+02
2.380000000000000000e+02,1.120163299999999964e+02
2.390000000000000000e+02,1.124288600000000002e+02
2.400000000000000000e+02,1.128406800000000061e+02
2.410000000000000000e+02,1.132517600000000044e+02
2.420000000000000000e+02,1.136621200000000016e+02
2.430000000000000000e+02,1.140717800000000040e+02
2.440000000000000000e+02,1.144807100000000020e+02
2.450000000000000000e+02,1.148889199999999988e+02
2.460000000000000000e+02,1.152964099999999945e+02
2.470000000000000000e+02,1.157031900000000064e+02
2.480000000000000000e+02,1.161092500000000030e+02
2.490000000000000000e+02,1.165145899999999983e+02
2.500000000000000000e+02,1.169192000000000036e+02
2.510000000000000000e+02,1.173231099999999998e+02
2.520000000000000000e+02,1.177262999999999948e+02
2.530000000000000000e+02,1.181287599999999998e+02
2.540000000000000000e+02,1.185305000000000035e+02
2.550000000000000000e+02,1.189315299999999951e+02
2.560000000000000000e+02,1.193318299999999965e+02
2.570000000000000000e+02,1.197314200000000000e+02
2.580000000000000000e+02,1.201302900000000022e+02
2.590000000000000000e+02,1.205284500000000065e+02
2.600000000000000000e+02,1.209258999999999986e+02
2.610000000000000000e+02,1.213226200000000006e+02
2.620000000000000000e+02,1.217186300000000045e+02
2.630000000000000000e+02,1.221139299999999963e+02
2.640000000000000000e+02,1.225085100000000011e+02
2.650000000000000000e+02,1.229023700000000048e+02
2.660000000000000000e+02,1.232955199999999962e+02
2.670000000000000000e+02,1.236879600000000039e+02
2.680000000000000000e+02,1.240796699999999930e+02
2.690000000000000000e+02,1.244706599999999952e+02
2.700000000000000000e+02,1.248609500000000025e+02
2.710000000000000000e+02,1.252505299999999977e+02
2.720000000000000000e+02,1.256393900000000059e+02
2.730000000000000000e+02,1.260275299999999987e+02
2.740000000000000000e+02,1.264149799999999999e+02
2.750000000000000000e+02,1.268016999999999967e+02
2.760000000000000000e+02,1.271877300000000020e+02
2.770000000000000000e+02,1.275730400000000060e+02
2.780000000000000000e+02,1.279576500000000010e+02
2.790000000000000000e+02,1.283415400000000091e+02
2.800000000000000000e+02,1.287247000000000128e+02
2.810000000000000000e+02,1.291071799999999996e+02
2.820000000000000000e+02,1.294889499999999884e+02
2.830000000000000000e+02,1.298700100000000077e+02
2.840000000000000000e+02,1.302503700000000038e+02
2.850000000000000000e+02,1.306299999999999955e+02
2.860000000000000000e+02,1.310089399999999955e+02
2.870000000000000000e+02,1.313871800000000007e+02
2.880000000000000000e+02,1.317647200000000112e+02
2.890000000000000000e+02,1.321415599999999984e+02
2.900000000000000000e+02,1.325176999999999907e+02
2.910000000000000000e+02,1.328931300000000135e+02
2.920000000000000000e+02,1.332678500000000099e+02
2.930000000000000000e+02,1.336418899999999894e+02
2.940000000000000000e+02,1.340152300000000025e+02
2.950000000000000000e+02,1.343878499999999860e+02
2.960000000000000000e+02,1.347597800000000063e+02
2.970000000000000000e+02,1.351310000000000002e+02
2.980000000000000000e+02,1.355015099999999961e+02
2.990000000000000000e+02,1.358713500000000067e+02
3.000000000000000000e+02,1.362404799999999909e+02
3.010000000000000000e+02,1.366089200000000119e+02
3.020000000000000000e+02,1.369766700000000128e+02
3.030000000000000000e+02,1.373437199999999905e+02
3.040000000000000000e+02,1.377100800000000049e+02
3.050000000000000000e+02,1.380757399999999961e+02
3.060000000000000000e+02,1.384407199999999989e+02
3.070000000000000000e+02,1.388050100000000100e+02
3.080000000000000000e+02,1.391685899999999947e+02
3.090000000000000000e+02,1.395314799999999877e+02
3.100000000000000000e+02,1.398936899999999923e+02
3.110000000000000000e+02,1.402552200000000084e+02
3.120000000000000000e+02,1.406160399999999981e+02
3.130000000000000000e+02,1.409761799999999994e+02
3.140000000000000000e+02,1.413356499999999869e+02
3.150000000000000000e+02,1.416944100000000049e+02
3.160000000000000000e+02,1.420525100000000123e+02
3.170000000000000000e+02,1.424099099999999964e+02
3.180000000000000000e+02,1.427666199999999890e+02
3.190000000000000000e+02,1.431226499999999930e+02
3.200000000000000000e+02,1.434780100000000118e+02
3.210000000000000000e+02,1.438326700000000073e+02
3.220000000000000000e+02,1.441866599999999892e+02
3.230000000000000000e+02,1.445399600000000078e+02
3.240000000000000000e+02,1.448925900000000127e+02
3.250000000000000000e+02,1.452445500000000038e+02
3.260000000000000000e+02,1.455958300000000065e+02
3.270000000000000000e+02,1.459464099999999860e+02
3.280000000000000000e+02,1.462963399999999865e+02
3.290000000000000000e+02,1.466455799999999954e+02
3.300000000000000000e+02,1.469941399999999874e+02
3.310000000000000000e+02,1.473420299999999941e+02
3.320000000000000000e+02,1.476892400000000123e+02
3.330000000000000000e+02,1.480357999999999947e+02
3.340000000000000000e+02,1.483816700000000139e+02
3.350000000000000000e+02,1.487268699999999910e+02
3.360000000000000000e+02,1.490714099999999860e+02
3.370000000000000000e+02,1.494152499999999861e+02
3.380000000000000000e+02,1.497584400000000073e+02
3.390000000000000000e+02,1.501009699999999896e+02
3.400000000000000000e+02,1.504428399999999897e+02
3.410000000000000000e+02,1.507840300000000013e+02
3.420000000000000000e+02,1.511245600000000024e+02
3.430000000000000000e+02,1.514644000000000119e+02
3.440000000000000000e+02,1.518035900000000140e+02
3.450000000000000000e+02,1.521421200000000056e+02
3.460000000000000000e+02,1.524799999999999898e+02
3.470000000000000000e+02,1.528172000000000139e+02
3.480000000000000000e+02,1.531537500000000023e+02
3.490000000000000000e+02,1.534896400000000085e+02
3.500000000000000000e+02,1.538248600000000010e+02
3.510000000000000000e+02,1.541594200000000114e+02
3.520000000000000000e+02,1.544933299999999861e+02
3.530000000000000000e+02,1.548266000000000133e+02
3.540000000000000000e+02,1.551591899999999953e+02
3.550000000000000000e+02,1.554911199999999951e+02
3.560000000000000000e+02,1.558223999999999876e+02
3.570000000000000000e+02,1.561530300000000011e+02
3.580000000000000000e+02,1.564830200000000104e+02
3.590000000000000000e+02,1.568123500000000092e+02
3.600000000000000000e+02,1.571410199999999975e+02
3.610000000000000000e+02,1.574690400000000068e+02
3.620000000000000000e+02,1.577964000000000055e+02
3.630000000000000000e+02,1.581231200000000001e+02
3.640000000000000000e+02,1.584491999999999905e+02
3.650000000000000000e+02,1.587746300000000019e+02
3.660000000000000000e+02,1.590994100000000060e+02
3.670000000000000000e+02,1.594235400000000027e+02
3.680000000000000000e+02,1.597470199999999920e+02
3.690000000000000000e+02,1.600698899999999867e+02
3.700000000000000000e+02,1.603920899999999961e+02
3.710000000000000000e+02,1.607136399999999981e+02
3.720000000000000000e+02,1.610345499999999959e+02
3.730000000000000000e+02,1.613548299999999927e+02
3.740000000000000000e+02,1.616744799999999884e+02
3.750000000000000000e+02,1.619934700000000021e+02
3.760000000000000000e+02,1.623118299999999863e+02
3.770000000000000000e+02,1.626295299999999884e+02
3.780000000000000000e+02,1.629466199999999958e+02
3.790000000000000000e+02,1.632630800000000022e+02
3.800000000000000000e+02,1.635788900000000012e+02
3.810000000000000000e+02,1.638940699999999993e+02
3.820000000000000000e+02,1.642085999999999899e+02
3.830000000000000000e+02,1.645225199999999859e+02
3.840000000000000000e+02,1.648358000000000061e+02
3.850000000000000000e+02,1.651484399999999937e+02
3.860000000000000000e+02,1.654604600000000119e+02
3.870000000000000000e+02,1.657718500000000006e+02
3.880000000000000000e+02,1.660826099999999883e+02
3.890000000000000000e+02,1.663927300000000002e+02
3.900000000000000000e+02,1.667022399999999891e+02
3.910000000000000000e+02,1.670111200000000053e+02
3.920000000000000000e+02,1.673193799999999953e+02
3.930000000000000000e+02,1.676270000000000095e+02
3.940000000000000000e+02,1.679340100000000007e+02
3.950000000000000000e+02,1.682403899999999908e+02
3.960000000000000000e+02,1.685461400000000083e+02
3.970000000000000000e+02,1.688512900000000059e+02
3.980000000000000000e+02,1.691558100000000024e+02
3.990000000000000000e+02,1.694596999999999980e+02
4.000000000000000000e+02,1.697629900000000021e+02
4.010000000000000000e+02,1.700656400000000019e+02
4.020000000000000000e+02,1.703676900000000103e+02
4.030000000000000000e+02,1.706691099999999892e+02
4.040000000000000000e+02,1.709699200000000019e+02
4.050000000000000000e+02,1.712701299999999947e+02
4.060000000000000000e+02,1.715697000000000116e+02
4.070000000000000000e+02,1.718686800000000119e+02
4.080000000000000000e+02,1.721670399999999859e+02
4.090000000000000000e+02,1.724647799999999904e+02
4.100000000000000000e+02,1.727619200000000035e+02
4.110000000000000000e+02,1.730584399999999903e+02
4.120000000000000000e+02,1.733543500000000108e+02
4.130000000000000000e+02,1.736496600000000115e+02
4.140000000000000000e+02,1.739443699999999922e+02
4.150000000000000000e+02,1.742384600000000034e+02
4.160000000000000000e+02,1.745319499999999948e+02
4.170000000000000000e+02,1.748248299999999915e+02
4.180000000000000000e+02,1.751171099999999967e+02
4.190000000000000000e+02,1.754087800000000072e+02
4.200000000000000000e+02,1.756998600000000010e+02
4.210000000000000000e+02,1.759903300000000002e+02
4.220000000000000000e+02,1.762802100000000110e+02
4.230000000000000000e+02,1.765694699999999955e+02
4.240000000000000000e+02,1.768581499999999949e+02
4.250000000000000000e+02,1.771462199999999996e+02
4.260000000000000000e+02,1.774336999999999875e+02
4.270000000000000000e+02,1.777205800000000124e+02
4.280000000000000000e+02,1.780068699999999922e+02
4.290000000000000000e+02,1.782925700000000120e+02
4.300000000000000000e+02,1.785776700000000119e+02
4.310000000000000000e+02,1.788621699999999919e+02
4.320000000000000000e+02,1.791460700000000088e+02
4.330000000000000000e+02,1.794293999999999869e+02
4.340000000000000000e+02,1.797121099999999956e+02
4.350000000000000000e+02,1.799942599999999970e+02
4.360000000000000000e+02,1.802758200000000102e+02
4.370000000000000000e+02,1.805567599999999970e+02
4.380000000000000000e+02,1.808371400000000051e+02
4.390000000000000000e+02,1.811169399999999996e+02
4.400000000000000000e+02,1.813961299999999994e+02
4.410000000000000000e+02,1.816747400000000141e+02
4.420000000000000000e+02,1.819527899999999931e+02
4.430000000000000000e+02,1.822302400000000091e+02
4.440000000000000000e+02,1.825071000000000083e+02
4.450000000000000000e+02,1.827833899999999971e+02
4.460000000000000000e+02,1.830591000000000008e+02
4.470000000000000000e+02,1.833342100000000130e+02
4.480000000000000000e+02,1.836087499999999864e+02
4.490000000000000000e+02,1.838827200000000062e+02
4.500000000000000000e+02,1.841561100000000124e+02
4.510000000000000000e+02,1.844289200000000051e+02
4.520000000000000000e+02,1.847011599999999873e+02
4.530000000000000000e+02,1.849728100000000097e+02
4.540000000000000000e+02,1.852438999999999965e+02
4.550000000000000000e+02,1.855144200000000012e+02
4.560000000000000000e+02,1.857843499999999892e+02
4.570000000000000000e+02,1.860537099999999953e+02
4.580000000000000000e+02,1.863225099999999941e+02
4.590000000000000000e+02,1.865907400000000109e+02
4.600000000000000000e+02,1.868583999999999889e+02
4.610000000000000000e+02,1.871254900000000134e+02
4.620000000000000000e+02,1.873919999999999959e+02
4.630000000000000000e+02,1.876579600000000028e+02
4.640000000000000000e+02,1.879233600000000024e+02
4.650000000000000000e+02,1.881881700000000137e+02
4.660000000000000000e+02,1.884524199999999894e+02
4.670000000000000000e+02,1.887161299999999926e+02
4.680000000000000000e+02,1.889792500000000075e+02
4.690000000000000000e+02,1.892418199999999899e+02
4.700000000000000000e+02,1.895038299999999936e+02
4.710000000000000000e+02,1.897652699999999868e+02
4.720000000000000000e+02,1.900261500000000012e+02
4.730000000000000000e+02,1.902864800000000116e+02
4.740000000000000000e+02,1.905462499999999864e+02
4.750000000000000000e+02,1.908054500000000075e+02
4.760000000000000000e+02,1.910641200000000026e+02
4.770000000000000000e+02,1.913222199999999873e+02
4.780000000000000000e+02,1.915797599999999932e+02
4.790000000000000000e+02,1.918367599999999982e+02
4.800000000000000000e+02,1.920931899999999928e+02
4.810000000000000000e+02,1.923490799999999865e+02
4.820000000000000000e+02,1.926044200000000046e+02
4.830000000000000000e+02,1.928592099999999903e+02
4.840000000000000000e+02,1.931134299999999939e+02
4.850000000000000000e+02,1.933671099999999967e+02
4.860000000000000000e+02,1.936202499999999986e+02
4.870000000000000000e+02,1.938728499999999997e+02
4.880000000000000000e+02,1.941248899999999935e+02
4.890000000000000000e+02,1.943763899999999865e+02
4.900000000000000000e+02,1.946273500000000070e+02
4.910000000000000000e+02,1.948777599999999950e+02
4.920000000000000000e+02,1.951276200000000074e+02
4.930000000000000000e+02,1.953769399999999905e+02
4.940000000000000000e+02,1.956257300000000043e+02
4.950000000000000000e+02,1.958739799999999889e+02
4.960000000000000000e+02,1.961216699999999946e+02
4.970000000000000000e+02,1.963688400000000058e+02
4.980000000000000000e+02,1.966154600000000130e+02
4.990000000000000000e+02,1.968615399999999909e+02
5.000000000000000000e+02,1.971071000000000026e+02
5.010000000000000000e+02,1.973521000000000072e+02
5.020000000000000000e+02,1.975965899999999920e+02
5.030000000000000000e+02,1.978405300000000011e+02
5.040000000000000000e+02,1.980839400000000126e+02
5.050000000000000000e+02,1.983268099999999947e+02
5.060000000000000000e+02,1.985691500000000076e+02
5.070000000000000000e+02,1.988109699999999975e+02
5.080000000000000000e+02,1.990522599999999898e+02
5.090000000000000000e+02,1.992930100000000095e+02
5.100000000000000000e+02,1.995332500000000095e+02
5.110000000000000000e+02,1.997729300000000023e+02
5.120000000000000000e+02,2.000121200000000101e+02
5.130000000000000000e+02,2.002507600000000139e+02
5.140000000000000000e+02,2.004888799999999947e+02
5.150000000000000000e+02,2.007264700000000062e+02
5.160000000000000000e+02,2.009635499999999979e+02
5.170000000000000000e+02,2.012000899999999888e+02
5.180000000000000000e+02,2.014361299999999915e+02
5.190000000000000000e+02,2.016716299999999933e+02
5.200000000000000000e+02,2.019066300000000069e+02
5.210000000000000000e+02,2.021410799999999881e+02
5.220000000000000000e+02,2.023750300000000095e+02
5.230000000000000000e+02,2.026084600000000080e+02
5.240000000000000000e+02,2.028413700000000119e+02
5.250000000000000000e+02,2.030737799999999993e+02
5.260000000000000000e+02,2.033056599999999889e+02
5.270000000000000000e+02,2.035370299999999872e+02
5.280000000000000000e+02,2.037678799999999910e+02
5.290000000000000000e+02,2.039982100000000003e+02
5.300000000000000000e+02,2.042280399999999929e+02
5.310000000000000000e+02,2.044573499999999910e+02
5.320000000000000000e+02,2.046861700000000042e+02
5.330000000000000000e+02,2.049144699999999943e+02
5.340000000000000000e+02,2.051422599999999932e+02
5.350000000000000000e+02,2.053695400000000006e+02
5.360000000000000000e+02,2.055963099999999883e+02
5.370000000000000000e+02,2.058225700000000131e+02
5.380000000000000000e+02,2.060483399999999961e+02
5.390000000000000000e+02,2.062735900000000129e+02
5.400000000000000000e+02,2.064983499999999879e+02
5.410000000000000000e+02,2.067225999999999999e+02
5.420000000000000000e+02,2.069463499999999954e+02
5.430000000000000000e+02,2.071696000000000026e+02
5.440000000000000000e+02,2.073923499999999933e+02
5.450000000000000000e+02,2.076145899999999926e+02
5.460000000000000000e+02,2.078363500000000101e+02
5.470000000000000000e+02,2.080575900000000047e+02
5.480000000000000000e+02,2.082783499999999890e+02
5.490000000000000000e+02,2.084986000000000104e+02
5.500000000000000000e+02,2.087183699999999931e+02
5.510000000000000000e+02,2.089376399999999876e+02
5.520000000000000000e+02,2.091563999999999908e+02
5.530000000000000000e+02,2.093746800000000121e+02
5.540000000000000000e+02,2.095924799999999948e+02
5.550000000000000000e+02,2.098097699999999861e+02
5.560000000000000000e+02,2.100265799999999956e+02
5.570000000000000000e+02,2.102428999999999917e+02
5.580000000000000000e+02,2.104587199999999996e+02
5.590000000000000000e+02,2.106740700000000004e+02
5.600000000000000000e+02,2.108889200000000130e+02
5.610000000000000000e+02,2.111032899999999870e+02
5.620000000000000000e+02,2.113171700000000044e+02
5.630000000000000000e+02,2.115305600000000084e+02
5.640000000000000000e+02,2.117434800000000052e+02
5.650000000000000000e+02,2.119559199999999919e+02
5.660000000000000000e+02,2.121678599999999904e+02
5.670000000000000000e+02,2.123793300000000102e+02
5.680000000000000000e+02,2.125903199999999913e+02
5.690000000000000000e+02,2.128008299999999906e+02
5.700000000000000000e+02,2.130108600000000081e+02
5.710000000000000000e+02,2.132204099999999869e+02
5.720000000000000000e+02,2.134294899999999870e+02
5.730000000000000000e+02,2.136380900000000054e+02
5.740000000000000000e+02,2.138462199999999882e+02
5.750000000000000000e+02,2.140538599999999860e+02
5.760000000000000000e+02,2.142610500000000116e+02
5.770000000000000000e+02,2.144677399999999921e+02
5.780000000000000000e+02,2.146740000000000066e+02
5.790000000000000000e+02,2.148797500000000014e+02
5.800000000000000000e+02,2.150850399999999922e+02
5.810000000000000000e+02,2.152898700000000076e+02
5.820000000000000000e+02,2.154942200000000128e+02
5.830000000000000000e+02,2.156981000000000108e+02
5.840000000000000000e+02,2.159015400000000113e+02
5.850000000000000000e+02,2.161044799999999952e+02
5.860000000000000000e+02,2.163069800000000100e+02
5.870000000000000000e+02,2.165089999999999861e+02
5.880000000000000000e+02,2.167105599999999868e+02
5.890000000000000000e+02,2.169116699999999867e+02
5.900000000000000000e+02,2.171123000000000047e+02
5.910000000000000000e+02,2.173124799999999937e+02
5.920000000000000000e+02,2.175122100000000103e+02
5.930000000000000000e+02,2.177114599999999882e+02
5.940000000000000000e+02,2.179102599999999939e+02
5.950000000000000000e+02,2.181086099999999988e+02
5.960000000000000000e+02,2.183064999999999998e+02
5.970000000000000000e+02,2.185039400000000001e+02
5.980000000000000000e+02,2.187009299999999996e+02
5.990000000000000000e+02,2.188974499999999921e+02