# Time [s], Temperature [C]
1.000000000000000000e+00,2.500000000000000000e+01
2.000000000000000000e+00,2.500000000000000000e+01
3.000000000000000000e+00,2.500000000000000000e+01
4.000000000000000000e+00,2.500000000000000000e+01
5.000000000000000000e+00,2.500000599999999906e+01
6.000000000000000000e+00,2.500003399999999942e+01
7.000000000000000000e+00,2.500014099999999928e+01
8.000000000000000000e+00,2.500048800000000071e+01
9.000000000000000000e+00,2.500143100000000018e+01
1.000000000000000000e+01,2.500365400000000093e+01
1.100000000000000000e+01,2.500831799999999916e+01
1.200000000000000000e+01,2.501714499999999930e+01
1.300000000000000000e+01,2.503248599999999868e+01
1.400000000000000000e+01,2.505728500000000025e+01
1.500000000000000000e+01,2.509499399999999980e+01
1.600000000000000000e+01,2.514945000000000164e+01
1.700000000000000000e+01,2.522473099999999846e+01
1.800000000000000000e+01,2.532501399999999947e+01
1.900000000000000000e+01,2.545445099999999883e+01
2.000000000000000000e+01,2.561704599999999843e+01
2.100000000000000000e+01,2.581658699999999840e+01
2.200000000000000000e+01,2.605658100000000132e+01
2.300000000000000000e+01,2.634019500000000136e+01
2.400000000000000000e+01,2.667024199999999823e+01
2.500000000000000000e+01,2.704916400000000110e+01
2.600000000000000000e+01,2.747905300000000040e+01
2.700000000000000000e+01,2.796161299999999983e+01
2.800000000000000000e+01,2.849820899999999924e+01
2.900000000000000000e+01,2.908989100000000150e+01
3.000000000000000000e+01,2.973738300000000123e+01
3.100000000000000000e+01,3.044114899999999935e+01
3.200000000000000000e+01,3.120138000000000034e+01
3.300000000000000000e+01,3.201803600000000216e+01
3.400000000000000000e+01,3.289089599999999791e+01
3.500000000000000000e+01,3.381954199999999844e+01
3.600000000000000000e+01,3.480340999999999951e+01
3.700000000000000000e+01,3.584176999999999680e+01
3.800000000000000000e+01,3.693380700000000161e+01
3.900000000000000000e+01,3.807858699999999885e+01
4.000000000000000000e+01,3.927506999999999948e+01
4.100000000000000000e+01,4.052215199999999840e+01
4.200000000000000000e+01,4.181868399999999752e+01
4.300000000000000000e+01,4.316345199999999949e+01
4.400000000000000000e+01,4.455514099999999900e+01
4.500000000000000000e+01,4.599249300000000318e+01
4.600000000000000000e+01,4.747413999999999845e+01
4.700000000000000000e+01,4.899874499999999955e+01
4.800000000000000000e+01,5.056492999999999682e+01
4.900000000000000000e+01,5.217130999999999830e+01
5.000000000000000000e+01,5.381647499999999695e+01
5.100000000000000000e+01,5.549903100000000222e+01
5.200000000000000000e+01,5.721759800000000240e+01
5.300000000000000000e+01,5.897073400000000021e+01
5.400000000000000000e+01,6.075705299999999909e+01
5.500000000000000000e+01,6.257516900000000248e+01
5.600000000000000000e+01,6.442370599999999570e+01
5.700000000000000000e+01,6.630126199999999415e+01
5.800000000000000000e+01,6.820649699999999882e+01
5.900000000000000000e+01,7.013805399999999679e+01
6.000000000000000000e+01,7.209464300000000492e+01
6.100000000000000000e+01,7.407494400000000212e+01
6.200000000000000000e+01,7.607766700000000526e+01
6.300000000000000000e+01,7.810154699999999650e+01
6.400000000000000000e+01,8.014533199999999624e+01
6.500000000000000000e+01,8.220784000000000447e+01
6.600000000000000000e+01,8.428785700000000247e+01
6.700000000000000000e+01,8.638428500000000554e+01
6.800000000000000000e+01,8.849603999999999360e+01
6.900000000000000000e+01,9.062197100000000205e+01
7.000000000000000000e+01,9.276107799999999770e+01
7.100000000000000000e+01,9.491238400000000297e+01
7.200000000000000000e+01,9.707488299999999981e+01
7.300000000000000000e+01,9.924765800000000127e+01
7.400000000000000000e+01,1.014298600000000050e+02
7.500000000000000000e+01,1.036206099999999992e+02
7.600000000000000000e+01,1.058191499999999934e+02
7.700000000000000000e+01,1.080246700000000004e+02
7.800000000000000000e+01,1.102365000000000066e+02
7.900000000000000000e+01,1.124539199999999965e+02
8.000000000000000000e+01,1.146763200000000040e+02
8.100000000000000000e+01,1.169030699999999996e+02
8.200000000000000000e+01,1.191335399999999964e+02
8.300000000000000000e+01,1.213672399999999953e+02
8.400000000000000000e+01,1.236035799999999938e+02
8.500000000000000000e+01,1.258421199999999942e+02
8.600000000000000000e+01,1.280823399999999879e+02
8.700000000000000000e+01,1.303237499999999898e+02
8.800000000000000000e+01,1.325659599999999898e+02
8.900000000000000000e+01,1.348085000000000093e+02
9.000000000000000000e+01,1.370510299999999972e+02
9.100000000000000000e+01,1.392930900000000065e+02
9.200000000000000000e+01,1.415342899999999986e+02
9.300000000000000000e+01,1.437743100000000140e+02
9.400000000000000000e+01,1.460127400000000080e+02
9.500000000000000000e+01,1.482493100000000084e+02
9.600000000000000000e+01,1.504836400000000083e+02
9.700000000000000000e+01,1.527154199999999946e+02
9.800000000000000000e+01,1.549444100000000049e+02
9.900000000000000000e+01,1.571702699999999879e+02
1.000000000000000000e+02,1.593928200000000004e+02
1.010000000000000000e+02,1.616117099999999880e+02
1.020000000000000000e+02,1.638267500000000041e+02
1.030000000000000000e+02,1.660376699999999914e+02
1.040000000000000000e+02,1.682442900000000066e+02
1.050000000000000000e+02,1.704464000000000112e+02
1.060000000000000000e+02,1.726437799999999925e+02
1.070000000000000000e+02,1.748362600000000100e+02
1.080000000000000000e+02,1.770236800000000130e+02
1.090000000000000000e+02,1.792058000000000106e+02
1.100000000000000000e+02,1.813825099999999964e+02
1.110000000000000000e+02,1.835535700000000077e+02
1.120000000000000000e+02,1.857188999999999908e+02
1.130000000000000000e+02,1.878782300000000021e+02
1.140000000000000000e+02,1.900314799999999877e+02
1.150000000000000000e+02,1.921785099999999886e+02
1.160000000000000000e+02,1.943191400000000044e+02
1.170000000000000000e+02,1.964532199999999875e+02
1.180000000000000000e+02,1.985806900000000041e+02
1.190000000000000000e+02,2.007013399999999876e+02
1.200000000000000000e+02,2.028150599999999883e+02
1.210000000000000000e+02,2.049217800000000125e+02
1.220000000000000000e+02,2.070213500000000124e+02
1.230000000000000000e+02,2.091136500000000069e+02
1.240000000000000000e+02,2.111985899999999958e+02
1.250000000000000000e+02,2.132761099999999885e+02
1.260000000000000000e+02,2.153461299999999881e+02
1.270000000000000000e+02,2.174084900000000005e+02
1.280000000000000000e+02,2.194630999999999972e+02
1.290000000000000000e+02,2.215098900000000128e+02
1.300000000000000000e+02,2.235487699999999904e+02
1.310000000000000000e+02,2.255796699999999930e+02
1.320000000000000000e+02,2.276025199999999984e+02
1.330000000000000000e+02,2.296172200000000032e+02
1.340000000000000000e+02,2.316237000000000137e+02
1.350000000000000000e+02,2.336218700000000013e+02
1.360000000000000000e+02,2.356116499999999974e+02
1.370000000000000000e+02,2.375929600000000050e+02
1.380000000000000000e+02,2.395657199999999989e+02
1.390000000000000000e+02,2.415298500000000104e+02
1.400000000000000000e+02,2.434852899999999920e+02
1.410000000000000000e+02,2.454319600000000037e+02
1.420000000000000000e+02,2.473698100000000011e+02
1.430000000000000000e+02,2.492987699999999904e+02
1.440000000000000000e+02,2.512187800000000095e+02
1.450000000000000000e+02,2.531297900000000141e+02
1.460000000000000000e+02,2.550317200000000071e+02
1.470000000000000000e+02,2.569245599999999854e+02
1.480000000000000000e+02,2.588082299999999805e+02
1.490000000000000000e+02,2.606826800000000048e+02
1.500000000000000000e+02,2.625478800000000206e+02
1.510000000000000000e+02,2.644037500000000023e+02
1.520000000000000000e+02,2.662503100000000131e+02
1.530000000000000000e+02,2.680874600000000214e+02
1.540000000000000000e+02,2.699151600000000144e+02
1.550000000000000000e+02,2.717334000000000174e+02
1.560000000000000000e+02,2.735420799999999986e+02
1.570000000000000000e+02,2.753412500000000023e+02
1.580000000000000000e+02,2.771308000000000220e+02
1.590000000000000000e+02,2.789106800000000135e+02
1.600000000000000000e+02,2.806808500000000208e+02
1.610000000000000000e+02,2.824412500000000250e+02
1.620000000000000000e+02,2.841918600000000197e+02
1.630000000000000000e+02,2.859325600000000236e+02
1.640000000000000000e+02,2.876633600000000115e+02
1.650000000000000000e+02,2.893840900000000147e+02
1.660000000000000000e+02,2.910947300000000268e+02
1.670000000000000000e+02,2.927951699999999846e+02
1.680000000000000000e+02,2.944853800000000206e+02
1.690000000000000000e+02,2.961651899999999955e+02
1.700000000000000000e+02,2.978344999999999914e+02
1.710000000000000000e+02,2.994932299999999827e+02
1.720000000000000000e+02,3.011412399999999820e+02
1.730000000000000000e+02,3.027783800000000269e+02
1.740000000000000000e+02,3.044045399999999972e+02
1.750000000000000000e+02,3.060195600000000127e+02
1.760000000000000000e+02,3.076233199999999783e+02
1.770000000000000000e+02,3.092156699999999887e+02
1.780000000000000000e+02,3.107963899999999740e+02
1.790000000000000000e+02,3.123653899999999908e+02
1.800000000000000000e+02,3.139224500000000262e+02
1.810000000000000000e+02,3.154674099999999726e+02
1.820000000000000000e+02,3.170000900000000001e+02
1.830000000000000000e+02,3.185202600000000075e+02
1.840000000000000000e+02,3.200278299999999945e+02
1.850000000000000000e+02,3.215225199999999859e+02
1.860000000000000000e+02,3.230041499999999814e+02
1.870000000000000000e+02,3.244724699999999871e+02
1.880000000000000000e+02,3.259273400000000152e+02
1.890000000000000000e+02,3.273685300000000211e+02
1.900000000000000000e+02,3.287957799999999793e+02
1.910000000000000000e+02,3.302088600000000156e+02
1.920000000000000000e+02,3.316075999999999908e+02
1.930000000000000000e+02,3.329917300000000182e+02
1.940000000000000000e+02,3.343610199999999963e+02
1.950000000000000000e+02,3.357152399999999943e+02
1.960000000000000000e+02,3.370541699999999992e+02
1.970000000000000000e+02,3.383775600000000168e+02
1.980000000000000000e+02,3.396851800000000026e+02
1.990000000000000000e+02,3.409768399999999815e+02
2.000000000000000000e+02,3.422522599999999784e+02
2.010000000000000000e+02,3.435112899999999740e+02
2.020000000000000000e+02,3.447536600000000249e+02
2.030000000000000000e+02,3.459792199999999980e+02
2.040000000000000000e+02,3.471877400000000193e+02
2.050000000000000000e+02,3.483790300000000002e+02
2.060000000000000000e+02,3.495529799999999909e+02
2.070000000000000000e+02,3.507094099999999912e+02
2.080000000000000000e+02,3.518481100000000197e+02
2.090000000000000000e+02,3.529690899999999942e+02
2.100000000000000000e+02,3.540721100000000092e+02
2.110000000000000000e+02,3.551571700000000078e+02
2.120000000000000000e+02,3.562241500000000087e+02
2.130000000000000000e+02,3.572730399999999804e+02
2.140000000000000000e+02,3.583038300000000049e+02
2.150000000000000000e+02,3.593164699999999812e+02
2.160000000000000000e+02,3.603110699999999724e+02
2.170000000000000000e+02,3.612875999999999976e+02
2.180000000000000000e+02,3.622462199999999939e+02
2.190000000000000000e+02,3.631869800000000055e+02
2.200000000000000000e+02,3.641100799999999822e+02
2.210000000000000000e+02,3.650156900000000064e+02
2.220000000000000000e+02,3.659039900000000216e+02
2.230000000000000000e+02,3.667751799999999776e+02
2.240000000000000000e+02,3.676295200000000136e+02
2.250000000000000000e+02,3.684673500000000104e+02
2.260000000000000000e+02,3.692889700000000062e+02
2.270000000000000000e+02,3.700946999999999889e+02
2.280000000000000000e+02,3.708849200000000224e+02
2.290000000000000000e+02,3.716600000000000250e+02
2.300000000000000000e+02,3.724203499999999849e+02
2.310000000000000000e+02,3.731663800000000037e+02
2.320000000000000000e+02,3.738986199999999940e+02
2.330000000000000000e+02,3.746175200000000132e+02
2.340000000000000000e+02,3.753235799999999927e+02
2.350000000000000000e+02,3.760172999999999774e+02
2.360000000000000000e+02,3.766992200000000253e+02
2.370000000000000000e+02,3.773698699999999917e+02
2.380000000000000000e+02,3.780298199999999724e+02
2.390000000000000000e+02,3.786795299999999997e+02
2.400000000000000000e+02,3.793196699999999737e+02
2.410000000000000000e+02,3.799508400000000279e+02
2.420000000000000000e+02,3.805734899999999925e+02
2.430000000000000000e+02,3.811883199999999761e+02
2.440000000000000000e+02,3.817958399999999983e+02
2.450000000000000000e+02,3.823967000000000098e+02
2.460000000000000000e+02,3.829914600000000178e+02
2.470000000000000000e+02,3.835806299999999851e+02
2.480000000000000000e+02,3.841648599999999760e+02
2.490000000000000000e+02,3.847446899999999914e+02
2.500000000000000000e+02,3.853206799999999816e+02
2.510000000000000000e+02,3.858934300000000235e+02
2.520000000000000000e+02,3.864634399999999914e+02
2.530000000000000000e+02,3.870312799999999811e+02
2.540000000000000000e+02,3.875975000000000250e+02
2.550000000000000000e+02,3.881626600000000167e+02
2.560000000000000000e+02,3.887271700000000010e+02
2.570000000000000000e+02,3.892917199999999980e+02
2.580000000000000000e+02,3.898566299999999956e+02
2.590000000000000000e+02,3.904224899999999820e+02
2.600000000000000000e+02,3.909898099999999772e+02
2.610000000000000000e+02,3.915590500000000134e+02
2.620000000000000000e+02,3.921308300000000031e+02
2.630000000000000000e+02,3.927054400000000101e+02
2.640000000000000000e+02,3.932834799999999973e+02
2.650000000000000000e+02,3.938652599999999779e+02
2.660000000000000000e+02,3.944515099999999848e+02
2.670000000000000000e+02,3.950423299999999927e+02
2.680000000000000000e+02,3.956384899999999902e+02
2.690000000000000000e+02,3.962402599999999779e+02
2.700000000000000000e+02,3.968482399999999757e+02
2.710000000000000000e+02,3.974626499999999965e+02
2.720000000000000000e+02,3.980843199999999911e+02
2.730000000000000000e+02,3.987134100000000103e+02
2.740000000000000000e+02,3.993503699999999981e+02
2.750000000000000000e+02,3.999958199999999806e+02
2.760000000000000000e+02,4.006499600000000214e+02
2.770000000000000000e+02,4.013135700000000270e+02
2.780000000000000000e+02,4.019871800000000235e+02
2.790000000000000000e+02,4.026712999999999738e+02
2.800000000000000000e+02,4.033661799999999857e+02
2.810000000000000000e+02,4.040724799999999846e+02
2.820000000000000000e+02,4.047908300000000281e+02
2.830000000000000000e+02,4.055215099999999779e+02
2.840000000000000000e+02,4.062652899999999931e+02
2.850000000000000000e+02,4.070228900000000181e+02
2.860000000000000000e+02,4.077947399999999902e+02
2.870000000000000000e+02,4.085815699999999993e+02
2.880000000000000000e+02,4.093842200000000275e+02
2.890000000000000000e+02,4.102029099999999744e+02
2.900000000000000000e+02,4.110386700000000246e+02
2.910000000000000000e+02,4.118918499999999767e+02
2.920000000000000000e+02,4.127636100000000283e+02
2.930000000000000000e+02,4.136548500000000104e+02
2.940000000000000000e+02,4.145662800000000061e+02
2.950000000000000000e+02,4.154986299999999915e+02
2.960000000000000000e+02,4.164530300000000125e+02
2.970000000000000000e+02,4.174304799999999886e+02
2.980000000000000000e+02,4.184317300000000159e+02
2.990000000000000000e+02,4.194577899999999886e+02
3.000000000000000000e+02,4.205100100000000225e+02
3.010000000000000000e+02,4.215893899999999803e+02
3.020000000000000000e+02,4.226970499999999902e+02
3.030000000000000000e+02,4.238339500000000157e+02
3.040000000000000000e+02,4.250012199999999893e+02
3.050000000000000000e+02,4.262003799999999956e+02
3.060000000000000000e+02,4.274325299999999856e+02
3.070000000000000000e+02,4.286991300000000251e+02
3.080000000000000000e+02,4.300010100000000079e+02
3.090000000000000000e+02,4.313393599999999992e+02
3.100000000000000000e+02,4.327150899999999751e+02
3.110000000000000000e+02,4.341301000000000272e+02
3.120000000000000000e+02,4.355840099999999779e+02
3.130000000000000000e+02,4.370786100000000260e+02
3.140000000000000000e+02,4.386141099999999824e+02
3.150000000000000000e+02,4.401901599999999917e+02
3.160000000000000000e+02,4.418062100000000214e+02
3.170000000000000000e+02,4.434633200000000102e+02
3.180000000000000000e+02,4.451596999999999866e+02
3.190000000000000000e+02,4.468931600000000230e+02
3.200000000000000000e+02,4.486617100000000278e+02
3.210000000000000000e+02,4.504626499999999965e+02
3.220000000000000000e+02,4.522924199999999928e+02
3.230000000000000000e+02,4.541460900000000152e+02
3.240000000000000000e+02,4.560183700000000044e+02
3.250000000000000000e+02,4.579034700000000271e+02
3.260000000000000000e+02,4.597953499999999849e+02
3.270000000000000000e+02,4.616868299999999863e+02
3.280000000000000000e+02,4.635720800000000281e+02
3.290000000000000000e+02,4.654444599999999923e+02
3.300000000000000000e+02,4.672977900000000204e+02
3.310000000000000000e+02,4.691282299999999736e+02
3.320000000000000000e+02,4.709318799999999783e+02
3.330000000000000000e+02,4.727065999999999804e+02
3.340000000000000000e+02,4.744512899999999718e+02
3.350000000000000000e+02,4.761657700000000091e+02
3.360000000000000000e+02,4.778511700000000246e+02
3.370000000000000000e+02,4.795090299999999957e+02
3.380000000000000000e+02,4.811404099999999744e+02
3.390000000000000000e+02,4.827472500000000082e+02
3.400000000000000000e+02,4.843311800000000176e+02
3.410000000000000000e+02,4.858935500000000047e+02
3.420000000000000000e+02,4.874353300000000218e+02
3.430000000000000000e+02,4.889581600000000208e+02
3.440000000000000000e+02,4.904626499999999965e+02
3.450000000000000000e+02,4.919497700000000009e+02
3.460000000000000000e+02,4.934201400000000035e+02
3.470000000000000000e+02,4.948745700000000056e+02
3.480000000000000000e+02,4.963135399999999890e+02
3.490000000000000000e+02,4.977375799999999799e+02
3.500000000000000000e+02,4.991473399999999856e+02
3.510000000000000000e+02,5.005430000000000064e+02
3.520000000000000000e+02,5.019252000000000180e+02
3.530000000000000000e+02,5.032942800000000148e+02
3.540000000000000000e+02,5.046504499999999780e+02
3.550000000000000000e+02,5.059941400000000158e+02
3.560000000000000000e+02,5.073256499999999960e+02
3.570000000000000000e+02,5.086456000000000017e+02
3.580000000000000000e+02,5.099538600000000201e+02
3.590000000000000000e+02,5.112506999999999948e+02
3.600000000000000000e+02,5.125365600000000086e+02
3.610000000000000000e+02,5.138116499999999860e+02
3.620000000000000000e+02,5.150760500000000093e+02
3.630000000000000000e+02,5.163299600000000282e+02
3.640000000000000000e+02,5.175737299999999550e+02
3.650000000000000000e+02,5.188075000000000045e+02
3.660000000000000000e+02,5.200314300000000003e+02
3.670000000000000000e+02,5.212456700000000183e+02
3.680000000000000000e+02,5.224504399999999578e+02
3.690000000000000000e+02,5.236458699999999453e+02
3.700000000000000000e+02,5.248322100000000319e+02
3.710000000000000000e+02,5.260094599999999900e+02
3.720000000000000000e+02,5.271778000000000475e+02
3.730000000000000000e+02,5.283373400000000402e+02
3.740000000000000000e+02,5.294882199999999557e+02
3.750000000000000000e+02,5.306304300000000467e+02
3.760000000000000000e+02,5.317640999999999849e+02
3.770000000000000000e+02,5.328896499999999605e+02
3.780000000000000000e+02,5.340070799999999736e+02
3.790000000000000000e+02,5.351163299999999481e+02
3.800000000000000000e+02,5.362175899999999729e+02
3.810000000000000000e+02,5.373107300000000350e+02
3.820000000000000000e+02,5.383961799999999585e+02
3.830000000000000000e+02,5.394739399999999705e+02
3.840000000000000000e+02,5.405439499999999953e+02
3.850000000000000000e+02,5.416065099999999575e+02
3.860000000000000000e+02,5.426615600000000086e+02
3.870000000000000000e+02,5.437091100000000097e+02
3.880000000000000000e+02,5.447493899999999485e+02
3.890000000000000000e+02,5.457825299999999515e+02
3.900000000000000000e+02,5.468082900000000564e+02
3.910000000000000000e+02,5.478271499999999605e+02
3.920000000000000000e+02,5.488388700000000426e+02
3.930000000000000000e+02,5.498436900000000378e+02
3.940000000000000000e+02,5.508414299999999457e+02
3.950000000000000000e+02,5.518324599999999691e+02
3.960000000000000000e+02,5.528167700000000195e+02
3.970000000000000000e+02,5.537943099999999959e+02
3.980000000000000000e+02,5.547651399999999740e+02
3.990000000000000000e+02,5.557293700000000172e+02
4.000000000000000000e+02,5.566871300000000247e+02
4.010000000000000000e+02,5.576382399999999961e+02
4.020000000000000000e+02,5.585830700000000206e+02
4.030000000000000000e+02,5.595213599999999587e+02
4.040000000000000000e+02,5.604533099999999877e+02
4.050000000000000000e+02,5.613791499999999814e+02
4.060000000000000000e+02,5.622987100000000282e+02
4.070000000000000000e+02,5.632119099999999889e+02
4.080000000000000000e+02,5.641190199999999777e+02
4.090000000000000000e+02,5.650202000000000453e+02
4.100000000000000000e+02,5.659152800000000525e+02
4.110000000000000000e+02,5.668042000000000371e+02
4.120000000000000000e+02,5.676871300000000247e+02
4.130000000000000000e+02,5.685642699999999650e+02
4.140000000000000000e+02,5.694355500000000347e+02
4.150000000000000000e+02,5.703009600000000319e+02
4.160000000000000000e+02,5.711605200000000195e+02
4.170000000000000000e+02,5.720142799999999852e+02
4.180000000000000000e+02,5.728623700000000554e+02
4.190000000000000000e+02,5.737047700000000532e+02
4.200000000000000000e+02,5.745416900000000169e+02
4.210000000000000000e+02,5.753729200000000219e+02
4.220000000000000000e+02,5.761986100000000306e+02
4.230000000000000000e+02,5.770188000000000557e+02
4.240000000000000000e+02,5.778334999999999582e+02
4.250000000000000000e+02,5.786427599999999529e+02
4.260000000000000000e+02,5.794465900000000147e+02
4.270000000000000000e+02,5.802451200000000426e+02
4.280000000000000000e+02,5.810382700000000114e+02
4.290000000000000000e+02,5.818261700000000474e+02
4.300000000000000000e+02,5.826088899999999740e+02
4.310000000000000000e+02,5.833863499999999931e+02
4.320000000000000000e+02,5.841586300000000165e+02
4.330000000000000000e+02,5.849257199999999557e+02
4.340000000000000000e+02,5.856876800000000003e+02
4.350000000000000000e+02,5.864444600000000491e+02
4.360000000000000000e+02,5.871962899999999763e+02
4.370000000000000000e+02,5.879431799999999839e+02
4.380000000000000000e+02,5.886849999999999454e+02
4.390000000000000000e+02,5.894218799999999874e+02
4.400000000000000000e+02,5.901538699999999835e+02
4.410000000000000000e+02,5.908809199999999464e+02
4.420000000000000000e+02,5.916031500000000278e+02
4.430000000000000000e+02,5.923205600000000004e+02
4.440000000000000000e+02,5.930331400000000031e+02
4.450000000000000000e+02,5.937410300000000234e+02
4.460000000000000000e+02,5.944440899999999601e+02
4.470000000000000000e+02,5.951425199999999904e+02
4.480000000000000000e+02,5.958362399999999752e+02
4.490000000000000000e+02,5.965253900000000158e+02
4.500000000000000000e+02,5.972097800000000234e+02
4.510000000000000000e+02,5.978897100000000364e+02
4.520000000000000000e+02,5.985651199999999790e+02
4.530000000000000000e+02,5.992359599999999773e+02
4.540000000000000000e+02,5.999023999999999432e+02
4.550000000000000000e+02,6.005642699999999650e+02
4.560000000000000000e+02,6.012216200000000299e+02
4.570000000000000000e+02,6.018746899999999869e+02
4.580000000000000000e+02,6.025234400000000505e+02
4.590000000000000000e+02,6.031677200000000312e+02
4.600000000000000000e+02,6.038077399999999670e+02
4.610000000000000000e+02,6.044433599999999842e+02
4.620000000000000000e+02,6.050747699999999440e+02
4.630000000000000000e+02,6.057020899999999983e+02
4.640000000000000000e+02,6.063250100000000202e+02
4.650000000000000000e+02,6.069438499999999976e+02
4.660000000000000000e+02,6.075584700000000566e+02
4.670000000000000000e+02,6.081690099999999575e+02
4.680000000000000000e+02,6.087753900000000158e+02
4.690000000000000000e+02,6.093777499999999918e+02
4.700000000000000000e+02,6.099760700000000497e+02
4.710000000000000000e+02,6.105703700000000254e+02
4.720000000000000000e+02,6.111605799999999817e+02
4.730000000000000000e+02,6.117469499999999698e+02
4.740000000000000000e+02,6.123292800000000398e+02
4.750000000000000000e+02,6.129077099999999518e+02
4.760000000000000000e+02,6.134822400000000471e+02
4.770000000000000000e+02,6.140529199999999719e+02
4.780000000000000000e+02,6.146196899999999914e+02
4.790000000000000000e+02,6.151827399999999670e+02
4.800000000000000000e+02,6.157419399999999996e+02
4.810000000000000000e+02,6.162972999999999502e+02
4.820000000000000000e+02,6.168490600000000086e+02
4.830000000000000000e+02,6.173969700000000103e+02
4.840000000000000000e+02,6.179412200000000439e+02
4.850000000000000000e+02,6.184818099999999959e+02
4.860000000000000000e+02,6.190187399999999798e+02
4.870000000000000000e+02,6.195520000000000209e+02
4.880000000000000000e+02,6.200816700000000310e+02
4.890000000000000000e+02,6.206077900000000227e+02
4.900000000000000000e+02,6.211303100000000086e+02
4.910000000000000000e+02,6.216492899999999509e+02
4.920000000000000000e+02,6.221647900000000391e+02
4.930000000000000000e+02,6.226768200000000206e+02
4.940000000000000000e+02,6.231853599999999460e+02
4.950000000000000000e+02,6.236904299999999921e+02
4.960000000000000000e+02,6.241920199999999568e+02
4.970000000000000000e+02,6.246903099999999540e+02
4.980000000000000000e+02,6.251852400000000216e+02
4.990000000000000000e+02,6.256768200000000206e+02
5.000000000000000000e+02,6.261649800000000141e+02
5.010000000000000000e+02,6.266499000000000024e+02
5.020000000000000000e+02,6.271315299999999979e+02
5.030000000000000000e+02,6.276098600000000260e+02
5.040000000000000000e+02,6.280848999999999478e+02
5.050000000000000000e+02,6.285566999999999780e+02
5.060000000000000000e+02,6.290253300000000536e+02
5.070000000000000000e+02,6.294907799999999725e+02
5.080000000000000000e+02,6.299531200000000126e+02
5.090000000000000000e+02,6.304122899999999845e+02
5.100000000000000000e+02,6.308682900000000018e+02
5.110000000000000000e+02,6.313212300000000141e+02
5.120000000000000000e+02,6.317709999999999582e+02
5.130000000000000000e+02,6.322177699999999732e+02
5.140000000000000000e+02,6.326615000000000464e+02
5.150000000000000000e+02,6.331021700000000010e+02
5.160000000000000000e+02,6.335399200000000519e+02
5.170000000000000000e+02,6.339746099999999842e+02
5.180000000000000000e+02,6.344063700000000381e+02
5.190000000000000000e+02,6.348351400000000240e+02
5.200000000000000000e+02,6.352609899999999925e+02
5.210000000000000000e+02,6.356839599999999564e+02
5.220000000000000000e+02,6.361040000000000418e+02
5.230000000000000000e+02,6.365211799999999585e+02
5.240000000000000000e+02,6.369355500000000347e+02
5.250000000000000000e+02,6.373471100000000433e+02
5.260000000000000000e+02,6.377558000000000220e+02
5.270000000000000000e+02,6.381617400000000089e+02
5.280000000000000000e+02,6.385649399999999787e+02
5.290000000000000000e+02,6.389653299999999945e+02
5.300000000000000000e+02,6.393630399999999554e+02
5.310000000000000000e+02,6.397580000000000382e+02
5.320000000000000000e+02,6.401502699999999777e+02
5.330000000000000000e+02,6.405397900000000391e+02
5.340000000000000000e+02,6.409266999999999825e+02
5.350000000000000000e+02,6.413109699999999975e+02
5.360000000000000000e+02,6.416926300000000083e+02
5.370000000000000000e+02,6.420716599999999517e+02
5.380000000000000000e+02,6.424480600000000550e+02
5.390000000000000000e+02,6.428219000000000278e+02
5.400000000000000000e+02,6.431931200000000217e+02
5.410000000000000000e+02,6.435618299999999863e+02
5.420000000000000000e+02,6.439279800000000478e+02
5.430000000000000000e+02,6.442916300000000547e+02
5.440000000000000000e+02,6.446527700000000323e+02
5.450000000000000000e+02,6.450115399999999681e+02
5.460000000000000000e+02,6.453677400000000262e+02
5.470000000000000000e+02,6.457215599999999540e+02
5.480000000000000000e+02,6.460729400000000169e+02
5.490000000000000000e+02,6.464218799999999874e+02
5.500000000000000000e+02,6.467684299999999666e+02
5.510000000000000000e+02,6.471126100000000179e+02
5.520000000000000000e+02,6.474544100000000526e+02
5.530000000000000000e+02,6.477938199999999824e+02
5.540000000000000000e+02,6.481309800000000223e+02
5.550000000000000000e+02,6.484657600000000457e+02
5.560000000000000000e+02,6.487982799999999770e+02
5.570000000000000000e+02,6.491284799999999677e+02
5.580000000000000000e+02,6.494563600000000179e+02
5.590000000000000000e+02,6.497821000000000140e+02
5.600000000000000000e+02,6.501055300000000443e+02
5.610000000000000000e+02,6.504267599999999447e+02
5.620000000000000000e+02,6.507457299999999805e+02
5.630000000000000000e+02,6.510625000000000000e+02
5.640000000000000000e+02,6.513771400000000540e+02
5.650000000000000000e+02,6.516895799999999781e+02
5.660000000000000000e+02,6.519998799999999619e+02
5.670000000000000000e+02,6.523080400000000054e+02
5.680000000000000000e+02,6.526140699999999697e+02
5.690000000000000000e+02,6.529179699999999684e+02
5.700000000000000000e+02,6.532197899999999890e+02
5.710000000000000000e+02,6.535195300000000316e+02
5.720000000000000000e+02,6.538171999999999571e+02
5.730000000000000000e+02,6.541127900000000182e+02
5.740000000000000000e+02,6.544064300000000003e+02
5.750000000000000000e+02,6.546979400000000169e+02
5.760000000000000000e+02,6.549874899999999798e+02
5.770000000000000000e+02,6.552750200000000405e+02
5.780000000000000000e+02,6.555606099999999969e+02
5.790000000000000000e+02,6.558441199999999753e+02
5.800000000000000000e+02,6.561257299999999759e+02
5.810000000000000000e+02,6.564054599999999482e+02
5.820000000000000000e+02,6.566831700000000183e+02
5.830000000000000000e+02,6.569589200000000346e+02
5.840000000000000000e+02,6.572329099999999471e+02
5.850000000000000000e+02,6.575048799999999574e+02
5.860000000000000000e+02,6.577750200000000405e+02
5.870000000000000000e+02,6.580432700000000068e+02
5.880000000000000000e+02,6.583096900000000460e+02
5.890000000000000000e+02,6.585742199999999684e+02
5.900000000000000000e+02,6.588369800000000396e+02
5.910000000000000000e+02,6.590978400000000192e+02
5.920000000000000000e+02,6.593569300000000339e+02
5.930000000000000000e+02,6.596142599999999447e+02
5.940000000000000000e+02,6.598697499999999536e+02
5.950000000000000000e+02,6.601235400000000482e+02
5.960000000000000000e+02,6.603755499999999756e+02
5.970000000000000000e+02,6.606257299999999759e+02
5.980000000000000000e+02,6.608742700000000241e+02
5.990000000000000000e+02,6.611210899999999810e+02