# Time [s], Temperature [C]
1.000000000000000000e+00,2.500000000000000000e+01
2.000000000000000000e+00,2.500000000000000000e+01
3.000000000000000000e+00,2.500000000000000000e+01
4.000000000000000000e+00,2.500000000000000000e+01
5.000000000000000000e+00,2.500000599999999906e+01
6.000000000000000000e+00,2.500003099999999989e+01
7.000000000000000000e+00,2.500013200000000069e+01
8.000000000000000000e+00,2.500045400000000129e+01
9.000000000000000000e+00,2.500132899999999836e+01
1.000000000000000000e+01,2.500340699999999927e+01
1.100000000000000000e+01,2.500777100000000175e+01
1.200000000000000000e+01,2.501605999999999952e+01
1.300000000000000000e+01,2.503051400000000015e+01
1.400000000000000000e+01,2.505395499999999842e+01
1.500000000000000000e+01,2.508971199999999868e+01
1.600000000000000000e+01,2.514151000000000025e+01
1.700000000000000000e+01,2.521333100000000016e+01
1.800000000000000000e+01,2.530927499999999952e+01
1.900000000000000000e+01,2.543344099999999841e+01
2.000000000000000000e+01,2.558980899999999892e+01
2.100000000000000000e+01,2.578216199999999958e+01
2.200000000000000000e+01,2.601402300000000167e+01
2.300000000000000000e+01,2.628860299999999839e+01
2.400000000000000000e+01,2.660875300000000010e+01
2.500000000000000000e+01,2.697699700000000078e+01
2.600000000000000000e+01,2.739547900000000169e+01
2.700000000000000000e+01,2.786600299999999919e+01
2.800000000000000000e+01,2.839002599999999887e+01
2.900000000000000000e+01,2.896864100000000164e+01
3.000000000000000000e+01,2.960270500000000027e+01
3.100000000000000000e+01,3.029274600000000106e+01
3.200000000000000000e+01,3.103902100000000175e+01
3.300000000000000000e+01,3.184160400000000024e+01
3.400000000000000000e+01,3.270033300000000054e+01
3.500000000000000000e+01,3.361489100000000008e+01
3.600000000000000000e+01,3.458475899999999825e+01
3.700000000000000000e+01,3.560931000000000068e+01
3.800000000000000000e+01,3.668773999999999802e+01
3.900000000000000000e+01,3.781920999999999822e+01
4.000000000000000000e+01,3.900274699999999939e+01
4.100000000000000000e+01,4.023729699999999809e+01
4.200000000000000000e+01,4.152171299999999832e+01
4.300000000000000000e+01,4.285488900000000001e+01
4.400000000000000000e+01,4.423552300000000059e+01
4.500000000000000000e+01,4.566237999999999886e+01
4.600000000000000000e+01,4.713410600000000272e+01
4.700000000000000000e+01,4.864942899999999781e+01
4.800000000000000000e+01,5.020696300000000178e+01
4.900000000000000000e+01,5.180532800000000293e+01
5.000000000000000000e+01,5.344315699999999936e+01
5.100000000000000000e+01,5.511904100000000284e+01
5.200000000000000000e+01,5.683159599999999756e+01
5.300000000000000000e+01,5.857938399999999746e+01
5.400000000000000000e+01,6.036101899999999887e+01
5.500000000000000000e+01,6.217514800000000008e+01
5.600000000000000000e+01,6.402034799999999848e+01
5.700000000000000000e+01,6.589520299999999509e+01
5.800000000000000000e+01,6.779840099999999836e+01
5.900000000000000000e+01,6.972854599999999436e+01
6.000000000000000000e+01,7.168432599999999866e+01
6.100000000000000000e+01,7.366439800000000560e+01
6.200000000000000000e+01,7.566747999999999763e+01
6.300000000000000000e+01,7.769227600000000677e+01
6.400000000000000000e+01,7.973750300000000379e+01
6.500000000000000000e+01,8.180197900000000288e+01
6.600000000000000000e+01,8.388449900000000525e+01
6.700000000000000000e+01,8.598391700000000526e+01
6.800000000000000000e+01,8.809918199999999899e+01
6.900000000000000000e+01,9.022905699999999740e+01
7.000000000000000000e+01,9.237258099999999672e+01
7.100000000000000000e+01,9.452876999999999441e+01
7.200000000000000000e+01,9.669657899999999984e+01
7.300000000000000000e+01,9.887513699999999517e+01
7.400000000000000000e+01,1.010634600000000063e+02
7.500000000000000000e+01,1.032608199999999954e+02
7.600000000000000000e+01,1.054662900000000008e+02
7.700000000000000000e+01,1.076792300000000040e+02
7.800000000000000000e+01,1.098987699999999990e+02
7.900000000000000000e+01,1.121243699999999990e+02
8.000000000000000000e+01,1.143552300000000059e+02
8.100000000000000000e+01,1.165908600000000064e+02
8.200000000000000000e+01,1.188305500000000023e+02
8.300000000000000000e+01,1.210738400000000041e+02
8.400000000000000000e+01,1.233201799999999935e+02
8.500000000000000000e+01,1.255689200000000056e+02
8.600000000000000000e+01,1.278197499999999991e+02
8.700000000000000000e+01,1.300721100000000092e+02
8.800000000000000000e+01,1.323254699999999957e+02
8.900000000000000000e+01,1.345795599999999865e+02
9.000000000000000000e+01,1.368337699999999870e+02
9.100000000000000000e+01,1.390878299999999967e+02
9.200000000000000000e+01,1.413413400000000024e+02
9.300000000000000000e+01,1.435937800000000095e+02
9.400000000000000000e+01,1.458449400000000082e+02
9.500000000000000000e+01,1.480944200000000137e+02
9.600000000000000000e+01,1.503418000000000063e+02
9.700000000000000000e+01,1.525869099999999889e+02
9.800000000000000000e+01,1.548293199999999956e+02
9.900000000000000000e+01,1.570688199999999881e+02
1.000000000000000000e+02,1.593051000000000101e+02
1.010000000000000000e+02,1.615378599999999949e+02
1.020000000000000000e+02,1.637669500000000085e+02
1.030000000000000000e+02,1.659919999999999902e+02
1.040000000000000000e+02,1.682129500000000064e+02
1.050000000000000000e+02,1.704293800000000090e+02
1.060000000000000000e+02,1.726411899999999946e+02
1.070000000000000000e+02,1.748481299999999976e+02
1.080000000000000000e+02,1.770500600000000020e+02
1.090000000000000000e+02,1.792467300000000137e+02
1.100000000000000000e+02,1.814379900000000134e+02
1.110000000000000000e+02,1.836236399999999946e+02
1.120000000000000000e+02,1.858035399999999981e+02
1.130000000000000000e+02,1.879774600000000078e+02
1.140000000000000000e+02,1.901452899999999886e+02
1.150000000000000000e+02,1.923067900000000066e+02
1.160000000000000000e+02,1.944618700000000047e+02
1.170000000000000000e+02,1.966103999999999985e+02
1.180000000000000000e+02,1.987521199999999908e+02
1.190000000000000000e+02,2.008870200000000068e+02
1.200000000000000000e+02,2.030149099999999862e+02
1.210000000000000000e+02,2.051356499999999983e+02
1.220000000000000000e+02,2.072491499999999860e+02
1.230000000000000000e+02,2.093553300000000092e+02
1.240000000000000000e+02,2.114539800000000014e+02
1.250000000000000000e+02,2.135450400000000002e+02
1.260000000000000000e+02,2.156284200000000055e+02
1.270000000000000000e+02,2.177040700000000015e+02
1.280000000000000000e+02,2.197718399999999974e+02
1.290000000000000000e+02,2.218316000000000088e+02
1.300000000000000000e+02,2.238832899999999881e+02
1.310000000000000000e+02,2.259267700000000048e+02
1.320000000000000000e+02,2.279620099999999923e+02
1.330000000000000000e+02,2.299888799999999947e+02
1.340000000000000000e+02,2.320072900000000118e+02
1.350000000000000000e+02,2.340171499999999867e+02
1.360000000000000000e+02,2.360184000000000140e+02
1.370000000000000000e+02,2.380109099999999955e+02
1.380000000000000000e+02,2.399945999999999913e+02
1.390000000000000000e+02,2.419694200000000137e+02
1.400000000000000000e+02,2.439352700000000027e+02
1.410000000000000000e+02,2.458921100000000024e+02
1.420000000000000000e+02,2.478398699999999906e+02
1.430000000000000000e+02,2.497784699999999987e+02
1.440000000000000000e+02,2.517078400000000045e+02
1.450000000000000000e+02,2.536279000000000110e+02
1.460000000000000000e+02,2.555386200000000088e+02
1.470000000000000000e+02,2.574399399999999787e+02
1.480000000000000000e+02,2.593318499999999744e+02
1.490000000000000000e+02,2.612142299999999864e+02
1.500000000000000000e+02,2.630871000000000208e+02
1.510000000000000000e+02,2.649504099999999767e+02
1.520000000000000000e+02,2.668040500000000179e+02
1.530000000000000000e+02,2.686480999999999995e+02
1.540000000000000000e+02,2.704824199999999905e+02
1.550000000000000000e+02,2.723069499999999721e+02
1.560000000000000000e+02,2.741217700000000264e+02
1.570000000000000000e+02,2.759266999999999825e+02
1.580000000000000000e+02,2.777217699999999923e+02
1.590000000000000000e+02,2.795068699999999922e+02
1.600000000000000000e+02,2.812820100000000139e+02
1.610000000000000000e+02,2.830470000000000255e+02
1.620000000000000000e+02,2.848018799999999828e+02
1.630000000000000000e+02,2.865465699999999742e+02
1.640000000000000000e+02,2.882809399999999869e+02
1.650000000000000000e+02,2.900049099999999953e+02
1.660000000000000000e+02,2.917184399999999869e+02
1.670000000000000000e+02,2.934213599999999929e+02
1.680000000000000000e+02,2.951135300000000257e+02
1.690000000000000000e+02,2.967948299999999904e+02
1.700000000000000000e+02,2.984652100000000132e+02
1.710000000000000000e+02,3.001244800000000055e+02
1.720000000000000000e+02,3.017724600000000237e+02
1.730000000000000000e+02,3.034090299999999729e+02
1.740000000000000000e+02,3.050340299999999729e+02
1.750000000000000000e+02,3.066472800000000234e+02
1.760000000000000000e+02,3.082486599999999726e+02
1.770000000000000000e+02,3.098379199999999969e+02
1.780000000000000000e+02,3.114149199999999951e+02
1.790000000000000000e+02,3.129794600000000173e+02
1.800000000000000000e+02,3.145313400000000001e+02
1.810000000000000000e+02,3.160703700000000254e+02
1.820000000000000000e+02,3.175963699999999790e+02
1.830000000000000000e+02,3.191091000000000122e+02
1.840000000000000000e+02,3.206083699999999794e+02
1.850000000000000000e+02,3.220938699999999812e+02
1.860000000000000000e+02,3.235654599999999732e+02
1.870000000000000000e+02,3.250229199999999992e+02
1.880000000000000000e+02,3.264659700000000271e+02
1.890000000000000000e+02,3.278943199999999933e+02
1.900000000000000000e+02,3.293078300000000240e+02
1.910000000000000000e+02,3.307061800000000176e+02
1.920000000000000000e+02,3.320891700000000242e+02
1.930000000000000000e+02,3.334565099999999802e+02
1.940000000000000000e+02,3.348079799999999864e+02
1.950000000000000000e+02,3.361433400000000233e+02
1.960000000000000000e+02,3.374623100000000022e+02
1.970000000000000000e+02,3.387646799999999985e+02
1.980000000000000000e+02,3.400502000000000180e+02
1.990000000000000000e+02,3.413186299999999846e+02
2.000000000000000000e+02,3.425698199999999929e+02
2.010000000000000000e+02,3.438034700000000043e+02
2.020000000000000000e+02,3.450194399999999746e+02
2.030000000000000000e+02,3.462174999999999727e+02
2.040000000000000000e+02,3.473974900000000048e+02
2.050000000000000000e+02,3.485592300000000137e+02
2.060000000000000000e+02,3.497025800000000118e+02
2.070000000000000000e+02,3.508274499999999989e+02
2.080000000000000000e+02,3.519337499999999750e+02
2.090000000000000000e+02,3.530213299999999776e+02
2.100000000000000000e+02,3.540901499999999942e+02
2.110000000000000000e+02,3.551401700000000119e+02
2.120000000000000000e+02,3.561713599999999929e+02
2.130000000000000000e+02,3.571838099999999940e+02
2.140000000000000000e+02,3.581774899999999775e+02
2.150000000000000000e+02,3.591525300000000129e+02
2.160000000000000000e+02,3.601089799999999741e+02
2.170000000000000000e+02,3.610470599999999877e+02
2.180000000000000000e+02,3.619668300000000158e+02
2.190000000000000000e+02,3.628684999999999832e+02
2.200000000000000000e+02,3.637523800000000165e+02
2.210000000000000000e+02,3.646186799999999835e+02
2.220000000000000000e+02,3.654676799999999730e+02
2.230000000000000000e+02,3.662996800000000235e+02
2.240000000000000000e+02,3.671150200000000154e+02
2.250000000000000000e+02,3.679141200000000254e+02
2.260000000000000000e+02,3.686973600000000033e+02
2.270000000000000000e+02,3.694651799999999753e+02
2.280000000000000000e+02,3.702180200000000241e+02
2.290000000000000000e+02,3.709563299999999799e+02
2.300000000000000000e+02,3.716806000000000267e+02
2.310000000000000000e+02,3.723913900000000012e+02
2.320000000000000000e+02,3.730891399999999862e+02
2.330000000000000000e+02,3.737745100000000207e+02
2.340000000000000000e+02,3.744479999999999791e+02
2.350000000000000000e+02,3.751101699999999823e+02
2.360000000000000000e+02,3.757616600000000062e+02
2.370000000000000000e+02,3.764030200000000264e+02
2.380000000000000000e+02,3.770347600000000057e+02
2.390000000000000000e+02,3.776576200000000085e+02
2.400000000000000000e+02,3.782720899999999915e+02
2.410000000000000000e+02,3.788788099999999872e+02
2.420000000000000000e+02,3.794784900000000221e+02
2.430000000000000000e+02,3.800715299999999957e+02
2.440000000000000000e+02,3.806586599999999976e+02
2.450000000000000000e+02,3.812403899999999908e+02
2.460000000000000000e+02,3.818174099999999953e+02
2.470000000000000000e+02,3.823902299999999741e+02
2.480000000000000000e+02,3.829594399999999723e+02
2.490000000000000000e+02,3.835255700000000161e+02
2.500000000000000000e+02,3.840891700000000242e+02
2.510000000000000000e+02,3.846508799999999724e+02
2.520000000000000000e+02,3.852111800000000130e+02
2.530000000000000000e+02,3.857706600000000208e+02
2.540000000000000000e+02,3.863297400000000152e+02
2.550000000000000000e+02,3.868890999999999849e+02
2.560000000000000000e+02,3.874490400000000250e+02
2.570000000000000000e+02,3.880101599999999848e+02
2.580000000000000000e+02,3.885729999999999791e+02
2.590000000000000000e+02,3.891379400000000146e+02
2.600000000000000000e+02,3.897056299999999851e+02
2.610000000000000000e+02,3.902763100000000236e+02
2.620000000000000000e+02,3.908506199999999922e+02
2.630000000000000000e+02,3.914288300000000049e+02
2.640000000000000000e+02,3.920116899999999873e+02
2.650000000000000000e+02,3.925993000000000279e+02
2.660000000000000000e+02,3.931923199999999952e+02
2.670000000000000000e+02,3.937912000000000035e+02
2.680000000000000000e+02,3.943962399999999775e+02
2.690000000000000000e+02,3.950079999999999814e+02
2.700000000000000000e+02,3.956270099999999843e+02
2.710000000000000000e+02,3.962535100000000057e+02
2.720000000000000000e+02,3.968882800000000088e+02
2.730000000000000000e+02,3.975314900000000193e+02
2.740000000000000000e+02,3.981835899999999810e+02
2.750000000000000000e+02,3.988451499999999896e+02
2.760000000000000000e+02,3.995169099999999958e+02
2.770000000000000000e+02,4.001990099999999870e+02
2.780000000000000000e+02,4.008920899999999961e+02
2.790000000000000000e+02,4.015966799999999921e+02
2.800000000000000000e+02,4.023131399999999758e+02
2.810000000000000000e+02,4.030422100000000114e+02
2.820000000000000000e+02,4.037841799999999921e+02
2.830000000000000000e+02,4.045399199999999951e+02
2.840000000000000000e+02,4.053101500000000215e+02
2.850000000000000000e+02,4.060953400000000215e+02
2.860000000000000000e+02,4.068960900000000152e+02
2.870000000000000000e+02,4.077131699999999910e+02
2.880000000000000000e+02,4.085472700000000259e+02
2.890000000000000000e+02,4.093992600000000266e+02
2.900000000000000000e+02,4.102696199999999749e+02
2.910000000000000000e+02,4.111594200000000114e+02
2.920000000000000000e+02,4.120690900000000170e+02
2.930000000000000000e+02,4.129999700000000189e+02
2.940000000000000000e+02,4.139526700000000119e+02
2.950000000000000000e+02,4.149283399999999915e+02
2.960000000000000000e+02,4.159278899999999908e+02
2.970000000000000000e+02,4.169522099999999796e+02
2.980000000000000000e+02,4.180024399999999787e+02
2.990000000000000000e+02,4.190797400000000152e+02
3.000000000000000000e+02,4.201850900000000024e+02
3.010000000000000000e+02,4.213198899999999867e+02
3.020000000000000000e+02,4.224853800000000206e+02
3.030000000000000000e+02,4.236824599999999919e+02
3.040000000000000000e+02,4.249123500000000035e+02
3.050000000000000000e+02,4.261761500000000069e+02
3.060000000000000000e+02,4.274750099999999975e+02
3.070000000000000000e+02,4.288108500000000163e+02
3.080000000000000000e+02,4.301835899999999810e+02
3.090000000000000000e+02,4.315942999999999756e+02
3.100000000000000000e+02,4.330448299999999904e+02
3.110000000000000000e+02,4.345351900000000001e+02
3.120000000000000000e+02,4.360651599999999917e+02
3.130000000000000000e+02,4.376360799999999927e+02
3.140000000000000000e+02,4.392471600000000080e+02
3.150000000000000000e+02,4.408976099999999860e+02
3.160000000000000000e+02,4.425860599999999749e+02
3.170000000000000000e+02,4.443109999999999786e+02
3.180000000000000000e+02,4.460704700000000003e+02
3.190000000000000000e+02,4.478610800000000154e+02
3.200000000000000000e+02,4.496787699999999859e+02
3.210000000000000000e+02,4.515192599999999743e+02
3.220000000000000000e+02,4.533770799999999781e+02
3.230000000000000000e+02,4.552466400000000135e+02
3.240000000000000000e+02,4.571215799999999945e+02
3.250000000000000000e+02,4.589953600000000051e+02
3.260000000000000000e+02,4.608613899999999717e+02
3.270000000000000000e+02,4.627142900000000054e+02
3.280000000000000000e+02,4.645480699999999956e+02
3.290000000000000000e+02,4.663589200000000119e+02
3.300000000000000000e+02,4.681435200000000236e+02
3.310000000000000000e+02,4.698999000000000024e+02
3.320000000000000000e+02,4.716271699999999782e+02
3.330000000000000000e+02,4.733252899999999954e+02
3.340000000000000000e+02,4.749954200000000242e+02
3.350000000000000000e+02,4.766389199999999846e+02
3.360000000000000000e+02,4.782575699999999870e+02
3.370000000000000000e+02,4.798524199999999951e+02
3.380000000000000000e+02,4.814250499999999988e+02
3.390000000000000000e+02,4.829771099999999819e+02
3.400000000000000000e+02,4.845097400000000221e+02
3.410000000000000000e+02,4.860239300000000071e+02
3.420000000000000000e+02,4.875205100000000016e+02
3.430000000000000000e+02,4.890002400000000193e+02
3.440000000000000000e+02,4.904639599999999859e+02
3.450000000000000000e+02,4.919122600000000034e+02
3.460000000000000000e+02,4.933456699999999842e+02
3.470000000000000000e+02,4.947648300000000177e+02
3.480000000000000000e+02,4.961701400000000035e+02
3.490000000000000000e+02,4.975619800000000055e+02
3.500000000000000000e+02,4.989406999999999925e+02
3.510000000000000000e+02,5.003066699999999969e+02
3.520000000000000000e+02,5.016603999999999814e+02
3.530000000000000000e+02,5.030019500000000221e+02
3.540000000000000000e+02,5.043318800000000124e+02
3.550000000000000000e+02,5.056501799999999776e+02
3.560000000000000000e+02,5.069573100000000068e+02
3.570000000000000000e+02,5.082536299999999869e+02
3.580000000000000000e+02,5.095392200000000003e+02
3.590000000000000000e+02,5.108141499999999837e+02
3.600000000000000000e+02,5.120789200000000392e+02
3.610000000000000000e+02,5.133336799999999585e+02
3.620000000000000000e+02,5.145784300000000258e+02
3.630000000000000000e+02,5.158137199999999893e+02
3.640000000000000000e+02,5.170393699999999626e+02
3.650000000000000000e+02,5.182555499999999711e+02
3.660000000000000000e+02,5.194625200000000405e+02
3.670000000000000000e+02,5.206604599999999436e+02
3.680000000000000000e+02,5.218494899999999461e+02
3.690000000000000000e+02,5.230297199999999975e+02
3.700000000000000000e+02,5.242011700000000474e+02
3.710000000000000000e+02,5.253638300000000072e+02
3.720000000000000000e+02,5.265181300000000419e+02
3.730000000000000000e+02,5.276644300000000385e+02
3.740000000000000000e+02,5.288024299999999585e+02
3.750000000000000000e+02,5.299323699999999917e+02
3.760000000000000000e+02,5.310542000000000371e+02
3.770000000000000000e+02,5.321680900000000065e+02
3.780000000000000000e+02,5.332741700000000264e+02
3.790000000000000000e+02,5.343726799999999457e+02
3.800000000000000000e+02,5.354634999999999536e+02
3.810000000000000000e+02,5.365466300000000501e+02
3.820000000000000000e+02,5.376224999999999454e+02
3.830000000000000000e+02,5.386909799999999677e+02
3.840000000000000000e+02,5.397520100000000411e+02
3.850000000000000000e+02,5.408059100000000399e+02
3.860000000000000000e+02,5.418527199999999766e+02
3.870000000000000000e+02,5.428922700000000532e+02
3.880000000000000000e+02,5.439248700000000554e+02
3.890000000000000000e+02,5.449505599999999959e+02
3.900000000000000000e+02,5.459692400000000134e+02
3.910000000000000000e+02,5.469811999999999443e+02
3.920000000000000000e+02,5.479862699999999904e+02
3.930000000000000000e+02,5.489847399999999880e+02
3.940000000000000000e+02,5.499764999999999873e+02
3.950000000000000000e+02,5.509617299999999886e+02
3.960000000000000000e+02,5.519403700000000299e+02
3.970000000000000000e+02,5.529125400000000354e+02
3.980000000000000000e+02,5.538782999999999674e+02
3.990000000000000000e+02,5.548375899999999774e+02
4.000000000000000000e+02,5.557906500000000278e+02
4.010000000000000000e+02,5.567373700000000554e+02
4.020000000000000000e+02,5.576778000000000475e+02
4.030000000000000000e+02,5.586121200000000044e+02
4.040000000000000000e+02,5.595402800000000525e+02
4.050000000000000000e+02,5.604622799999999643e+02
4.060000000000000000e+02,5.613783600000000433e+02
4.070000000000000000e+02,5.622883900000000494e+02
4.080000000000000000e+02,5.631923199999999952e+02
4.090000000000000000e+02,5.640903299999999945e+02
4.100000000000000000e+02,5.649826699999999846e+02
4.110000000000000000e+02,5.658690800000000536e+02
4.120000000000000000e+02,5.667496300000000247e+02
4.130000000000000000e+02,5.676244500000000244e+02
4.140000000000000000e+02,5.684935299999999643e+02
4.150000000000000000e+02,5.693570600000000468e+02
4.160000000000000000e+02,5.702148999999999432e+02
4.170000000000000000e+02,5.710672600000000330e+02
4.180000000000000000e+02,5.719138199999999870e+02
4.190000000000000000e+02,5.727549400000000333e+02
4.200000000000000000e+02,5.735905199999999695e+02
4.210000000000000000e+02,5.744206500000000233e+02
4.220000000000000000e+02,5.752453600000000051e+02
4.230000000000000000e+02,5.760646400000000540e+02
4.240000000000000000e+02,5.768786000000000058e+02
4.250000000000000000e+02,5.776872600000000375e+02
4.260000000000000000e+02,5.784906600000000481e+02
4.270000000000000000e+02,5.792887600000000248e+02
4.280000000000000000e+02,5.800817299999999932e+02
4.290000000000000000e+02,5.808695099999999911e+02
4.300000000000000000e+02,5.816521599999999808e+02
4.310000000000000000e+02,5.824296299999999746e+02
4.320000000000000000e+02,5.832019699999999602e+02
4.330000000000000000e+02,5.839692999999999756e+02
4.340000000000000000e+02,5.847316899999999578e+02
4.350000000000000000e+02,5.854890699999999697e+02
4.360000000000000000e+02,5.862414599999999609e+02
4.370000000000000000e+02,5.869889500000000453e+02
4.380000000000000000e+02,5.877315099999999575e+02
4.390000000000000000e+02,5.884691800000000512e+02
4.400000000000000000e+02,5.892020899999999983e+02
4.410000000000000000e+02,5.899302400000000262e+02
4.420000000000000000e+02,5.906535599999999704e+02
4.430000000000000000e+02,5.913721900000000460e+02
4.440000000000000000e+02,5.920860599999999749e+02
4.450000000000000000e+02,5.927952299999999468e+02
4.460000000000000000e+02,5.934998199999999997e+02
4.470000000000000000e+02,5.941997099999999818e+02
4.480000000000000000e+02,5.948950200000000450e+02
4.490000000000000000e+02,5.955856899999999996e+02
4.500000000000000000e+02,5.962718499999999722e+02
4.510000000000000000e+02,5.969536100000000260e+02
4.520000000000000000e+02,5.976307399999999461e+02
4.530000000000000000e+02,5.983035300000000234e+02
4.540000000000000000e+02,5.989718000000000302e+02
4.550000000000000000e+02,5.996356799999999794e+02
4.560000000000000000e+02,6.002952900000000227e+02
4.570000000000000000e+02,6.009504399999999578e+02
4.580000000000000000e+02,6.016012600000000248e+02
4.590000000000000000e+02,6.022477999999999838e+02
4.600000000000000000e+02,6.028901399999999740e+02
4.610000000000000000e+02,6.035281400000000076e+02
4.620000000000000000e+02,6.041619899999999461e+02
4.630000000000000000e+02,6.047915600000000040e+02
4.640000000000000000e+02,6.054171099999999797e+02
4.650000000000000000e+02,6.060384500000000116e+02
4.660000000000000000e+02,6.066556399999999485e+02
4.670000000000000000e+02,6.072688000000000557e+02
4.680000000000000000e+02,6.078778700000000299e+02
4.690000000000000000e+02,6.084829099999999471e+02
4.700000000000000000e+02,6.090838599999999587e+02
4.710000000000000000e+02,6.096809700000000021e+02
4.720000000000000000e+02,6.102739900000000262e+02
4.730000000000000000e+02,6.108632199999999557e+02
4.740000000000000000e+02,6.114484300000000303e+02
4.750000000000000000e+02,6.120298500000000104e+02
4.760000000000000000e+02,6.126072400000000471e+02
4.770000000000000000e+02,6.131809100000000399e+02
4.780000000000000000e+02,6.137507299999999759e+02
4.790000000000000000e+02,6.143168299999999817e+02
4.800000000000000000e+02,6.148790900000000192e+02
4.810000000000000000e+02,6.154376200000000381e+02
4.820000000000000000e+02,6.159923700000000508e+02
4.830000000000000000e+02,6.165435199999999440e+02
4.840000000000000000e+02,6.170909400000000460e+02
4.850000000000000000e+02,6.176347700000000032e+02
4.860000000000000000e+02,6.181749300000000176e+02
4.870000000000000000e+02,6.187114900000000262e+02
4.880000000000000000e+02,6.192445099999999911e+02
4.890000000000000000e+02,6.197739299999999503e+02
4.900000000000000000e+02,6.202998000000000047e+02
4.910000000000000000e+02,6.208221399999999903e+02
4.920000000000000000e+02,6.213410000000000082e+02
4.930000000000000000e+02,6.218563799999999446e+02
4.940000000000000000e+02,6.223682900000000018e+02
4.950000000000000000e+02,6.228768300000000409e+02
4.960000000000000000e+02,6.233819600000000491e+02
4.970000000000000000e+02,6.238836700000000519e+02
4.980000000000000000e+02,6.243820200000000114e+02
4.990000000000000000e+02,6.248770100000000411e+02
5.000000000000000000e+02,6.253687099999999646e+02
5.010000000000000000e+02,6.258571200000000090e+02
5.020000000000000000e+02,6.263422199999999975e+02
5.030000000000000000e+02,6.268241000000000440e+02
5.040000000000000000e+02,6.273026700000000346e+02
5.050000000000000000e+02,6.277780800000000454e+02
5.060000000000000000e+02,6.282503100000000131e+02
5.070000000000000000e+02,6.287193600000000515e+02
5.080000000000000000e+02,6.291851799999999457e+02
5.090000000000000000e+02,6.296479500000000371e+02
5.100000000000000000e+02,6.301075399999999718e+02
5.110000000000000000e+02,6.305640300000000025e+02
5.120000000000000000e+02,6.310174600000000282e+02
5.130000000000000000e+02,6.314678300000000490e+02
5.140000000000000000e+02,6.319151600000000144e+02
5.150000000000000000e+02,6.323595000000000255e+02
5.160000000000000000e+02,6.328008999999999560e+02
5.170000000000000000e+02,6.332392599999999447e+02
5.180000000000000000e+02,6.336746799999999666e+02
5.190000000000000000e+02,6.341071200000000090e+02
5.200000000000000000e+02,6.345366800000000467e+02
5.210000000000000000e+02,6.349633199999999533e+02
5.220000000000000000e+02,6.353870799999999690e+02
5.230000000000000000e+02,6.358079199999999673e+02
5.240000000000000000e+02,6.362259500000000116e+02
5.250000000000000000e+02,6.366411100000000260e+02
5.260000000000000000e+02,6.370535300000000234e+02
5.270000000000000000e+02,6.374630700000000161e+02
5.280000000000000000e+02,6.378698699999999917e+02
5.290000000000000000e+02,6.382739299999999503e+02
5.300000000000000000e+02,6.386752300000000560e+02
5.310000000000000000e+02,6.390738499999999931e+02
5.320000000000000000e+02,6.394697300000000268e+02
5.330000000000000000e+02,6.398629799999999932e+02
5.340000000000000000e+02,6.402534799999999677e+02
5.350000000000000000e+02,6.406413599999999633e+02
5.360000000000000000e+02,6.410265500000000429e+02
5.370000000000000000e+02,6.414091799999999921e+02
5.380000000000000000e+02,6.417892500000000382e+02
5.390000000000000000e+02,6.421666900000000169e+02
5.400000000000000000e+02,6.425415600000000040e+02
5.410000000000000000e+02,6.429139400000000251e+02
5.420000000000000000e+02,6.432837500000000546e+02
5.430000000000000000e+02,6.436510600000000295e+02
5.440000000000000000e+02,6.440158099999999877e+02
5.450000000000000000e+02,6.443780500000000302e+02
5.460000000000000000e+02,6.447378499999999804e+02
5.470000000000000000e+02,6.450952099999999518e+02
5.480000000000000000e+02,6.454501299999999446e+02
5.490000000000000000e+02,6.458026099999999587e+02
5.500000000000000000e+02,6.461527700000000323e+02
5.510000000000000000e+02,6.465004900000000134e+02
5.520000000000000000e+02,6.468458299999999781e+02
5.530000000000000000e+02,6.471887799999999515e+02
5.540000000000000000e+02,6.475294199999999591e+02
5.550000000000000000e+02,6.478676799999999503e+02
5.560000000000000000e+02,6.482037400000000389e+02
5.570000000000000000e+02,6.485374100000000226e+02
5.580000000000000000e+02,6.488688399999999774e+02
5.590000000000000000e+02,6.491979999999999791e+02
5.600000000000000000e+02,6.495249000000000024e+02
5.610000000000000000e+02,6.498495500000000220e+02
5.620000000000000000e+02,6.501720000000000255e+02
5.630000000000000000e+02,6.504922500000000127e+02
5.640000000000000000e+02,6.508102999999999838e+02
5.650000000000000000e+02,6.511260999999999513e+02
5.660000000000000000e+02,6.514398200000000543e+02
5.670000000000000000e+02,6.517513999999999896e+02
5.680000000000000000e+02,6.520607899999999972e+02
5.690000000000000000e+02,6.523681000000000267e+02
5.700000000000000000e+02,6.526732200000000148e+02
5.710000000000000000e+02,6.529763799999999492e+02
5.720000000000000000e+02,6.532773399999999810e+02
5.730000000000000000e+02,6.535763500000000477e+02
5.740000000000000000e+02,6.538732300000000350e+02
5.750000000000000000e+02,6.541680300000000443e+02
5.760000000000000000e+02,6.544608799999999746e+02
5.770000000000000000e+02,6.547517100000000028e+02
5.780000000000000000e+02,6.550404700000000275e+02
5.790000000000000000e+02,6.553273299999999608e+02
5.800000000000000000e+02,6.556121799999999666e+02
5.810000000000000000e+02,6.558950800000000072e+02
5.820000000000000000e+02,6.561760299999999688e+02
5.830000000000000000e+02,6.564550199999999904e+02
5.840000000000000000e+02,6.567321799999999712e+02
5.850000000000000000e+02,6.570073200000000497e+02
5.860000000000000000e+02,6.572806399999999485e+02
5.870000000000000000e+02,6.575520599999999831e+02
5.880000000000000000e+02,6.578215300000000525e+02
5.890000000000000000e+02,6.580892300000000432e+02
5.900000000000000000e+02,6.583550999999999931e+02
5.910000000000000000e+02,6.586190800000000536e+02
5.920000000000000000e+02,6.588812900000000354e+02
5.930000000000000000e+02,6.591416600000000017e+02
5.940000000000000000e+02,6.594002699999999777e+02
5.950000000000000000e+02,6.596571000000000140e+02
5.960000000000000000e+02,6.599121099999999842e+02
5.970000000000000000e+02,6.601653400000000147e+02
5.980000000000000000e+02,6.604169299999999794e+02
5.990000000000000000e+02,6.606666900000000169e+02