# Time [s], Temperature [C]
1.000000000000000000e+00,2.500000000000000000e+01
2.000000000000000000e+00,2.500000000000000000e+01
3.000000000000000000e+00,2.500000000000000000e+01
4.000000000000000000e+00,2.500000000000000000e+01
5.000000000000000000e+00,2.500000199999999850e+01
6.000000000000000000e+00,2.500000599999999906e+01
7.000000000000000000e+00,2.500002299999999877e+01
8.000000000000000000e+00,2.500008199999999903e+01
9.000000000000000000e+00,2.500023799999999952e+01
1.000000000000000000e+01,2.500060699999999869e+01
1.100000000000000000e+01,2.500138099999999852e+01
1.200000000000000000e+01,2.500284800000000018e+01
1.300000000000000000e+01,2.500539200000000051e+01
1.400000000000000000e+01,2.500950599999999824e+01
1.500000000000000000e+01,2.501576000000000022e+01
1.600000000000000000e+01,2.502478800000000092e+01
1.700000000000000000e+01,2.503726800000000097e+01
1.800000000000000000e+01,2.505388800000000060e+01
1.900000000000000000e+01,2.507534000000000063e+01
2.000000000000000000e+01,2.510228700000000046e+01
2.100000000000000000e+01,2.513536300000000168e+01
2.200000000000000000e+01,2.517514600000000158e+01
2.300000000000000000e+01,2.522217399999999898e+01
2.400000000000000000e+01,2.527691700000000097e+01
2.500000000000000000e+01,2.533979400000000126e+01
2.600000000000000000e+01,2.541116099999999989e+01
2.700000000000000000e+01,2.549132000000000176e+01
2.800000000000000000e+01,2.558051499999999834e+01
2.900000000000000000e+01,2.567894199999999927e+01
3.000000000000000000e+01,2.578674900000000036e+01
3.100000000000000000e+01,2.590403900000000093e+01
3.200000000000000000e+01,2.603087599999999924e+01
3.300000000000000000e+01,2.616728200000000015e+01
3.400000000000000000e+01,2.631325700000000012e+01
3.500000000000000000e+01,2.646876100000000065e+01
3.600000000000000000e+01,2.663373599999999897e+01
3.700000000000000000e+01,2.680809599999999904e+01
3.800000000000000000e+01,2.699173700000000053e+01
3.900000000000000000e+01,2.718454399999999893e+01
4.000000000000000000e+01,2.738637400000000000e+01
4.100000000000000000e+01,2.759708200000000033e+01
4.200000000000000000e+01,2.781650700000000143e+01
4.300000000000000000e+01,2.804448500000000166e+01
4.400000000000000000e+01,2.828084399999999832e+01
4.500000000000000000e+01,2.852539399999999858e+01
4.600000000000000000e+01,2.877795800000000170e+01
4.700000000000000000e+01,2.903834700000000169e+01
4.800000000000000000e+01,2.930636399999999853e+01
4.900000000000000000e+01,2.958182299999999998e+01
5.000000000000000000e+01,2.986453600000000108e+01
5.100000000000000000e+01,3.015430100000000024e+01
5.200000000000000000e+01,3.045092999999999961e+01
5.300000000000000000e+01,3.075422899999999871e+01
5.400000000000000000e+01,3.106401400000000024e+01
5.500000000000000000e+01,3.138009100000000018e+01
5.600000000000000000e+01,3.170228600000000085e+01
5.700000000000000000e+01,3.203040699999999674e+01
5.800000000000000000e+01,3.236427299999999718e+01
5.900000000000000000e+01,3.270371200000000300e+01
6.000000000000000000e+01,3.304854600000000175e+01
6.100000000000000000e+01,3.339860500000000343e+01
6.200000000000000000e+01,3.375373100000000193e+01
6.300000000000000000e+01,3.411375400000000013e+01
6.400000000000000000e+01,3.447851599999999905e+01
6.500000000000000000e+01,3.484785500000000269e+01
6.600000000000000000e+01,3.522162200000000354e+01
6.700000000000000000e+01,3.559967000000000326e+01
6.800000000000000000e+01,3.598185000000000144e+01
6.900000000000000000e+01,3.636801899999999677e+01
7.000000000000000000e+01,3.675803799999999910e+01
7.100000000000000000e+01,3.715177899999999767e+01
7.200000000000000000e+01,3.754910300000000234e+01
7.300000000000000000e+01,3.794988599999999934e+01
7.400000000000000000e+01,3.835400400000000332e+01
7.500000000000000000e+01,3.876133300000000048e+01
7.600000000000000000e+01,3.917175699999999949e+01
7.700000000000000000e+01,3.958516300000000143e+01
7.800000000000000000e+01,4.000144199999999728e+01
7.900000000000000000e+01,4.042047900000000027e+01
8.000000000000000000e+01,4.084217100000000045e+01
8.100000000000000000e+01,4.126641800000000160e+01
8.200000000000000000e+01,4.169311499999999882e+01
8.300000000000000000e+01,4.212217299999999653e+01
8.400000000000000000e+01,4.255348999999999648e+01
8.500000000000000000e+01,4.298697700000000310e+01
8.600000000000000000e+01,4.342255000000000109e+01
8.700000000000000000e+01,4.386011899999999741e+01
8.800000000000000000e+01,4.429960299999999762e+01
8.900000000000000000e+01,4.474092100000000016e+01
9.000000000000000000e+01,4.518399000000000143e+01
9.100000000000000000e+01,4.562873799999999846e+01
9.200000000000000000e+01,4.607508899999999841e+01
9.300000000000000000e+01,4.652296799999999877e+01
9.400000000000000000e+01,4.697230900000000275e+01
9.500000000000000000e+01,4.742303799999999825e+01
9.600000000000000000e+01,4.787511400000000350e+01
9.700000000000000000e+01,4.832844899999999910e+01
9.800000000000000000e+01,4.878298600000000107e+01
9.900000000000000000e+01,4.923865899999999840e+01
1.000000000000000000e+02,4.969541499999999701e+01
1.010000000000000000e+02,5.015320200000000028e+01
1.020000000000000000e+02,5.061196100000000087e+01
1.030000000000000000e+02,5.107165499999999980e+01
1.040000000000000000e+02,5.153221500000000077e+01
1.050000000000000000e+02,5.199358699999999800e+01
1.060000000000000000e+02,5.245572700000000310e+01
1.070000000000000000e+02,5.291859099999999927e+01
1.080000000000000000e+02,5.338213300000000316e+01
1.090000000000000000e+02,5.384631699999999910e+01
1.100000000000000000e+02,5.431110400000000027e+01
1.110000000000000000e+02,5.477642399999999867e+01
1.120000000000000000e+02,5.524225200000000058e+01
1.130000000000000000e+02,5.570854899999999787e+01
1.140000000000000000e+02,5.617528500000000236e+01
1.150000000000000000e+02,5.664242600000000039e+01
1.160000000000000000e+02,5.710992799999999647e+01
1.170000000000000000e+02,5.757774400000000270e+01
1.180000000000000000e+02,5.804585300000000103e+01
1.190000000000000000e+02,5.851422099999999915e+01
1.200000000000000000e+02,5.898282199999999875e+01
1.210000000000000000e+02,5.945163699999999807e+01
1.220000000000000000e+02,5.992061199999999843e+01
1.230000000000000000e+02,6.038972100000000154e+01
1.240000000000000000e+02,6.085893999999999693e+01
1.250000000000000000e+02,6.132824699999999751e+01
1.260000000000000000e+02,6.179761500000000041e+01
1.270000000000000000e+02,6.226703599999999739e+01
1.280000000000000000e+02,6.273645799999999895e+01
1.290000000000000000e+02,6.320586000000000126e+01
1.300000000000000000e+02,6.367522400000000005e+01
1.310000000000000000e+02,6.414453100000000063e+01
1.320000000000000000e+02,6.461376199999999415e+01
1.330000000000000000e+02,6.508290900000000079e+01
1.340000000000000000e+02,6.555191800000000057e+01
1.350000000000000000e+02,6.602079000000000519e+01
1.360000000000000000e+02,6.648949399999999343e+01
1.370000000000000000e+02,6.695803100000000541e+01
1.380000000000000000e+02,6.742636899999999400e+01
1.390000000000000000e+02,6.789450800000000186e+01
1.400000000000000000e+02,6.836240399999999795e+01
1.410000000000000000e+02,6.883005500000000154e+01
1.420000000000000000e+02,6.929743999999999460e+01
1.430000000000000000e+02,6.976455699999999638e+01
1.440000000000000000e+02,7.023138400000000559e+01
1.450000000000000000e+02,7.069791399999999726e+01
1.460000000000000000e+02,7.116410799999999881e+01
1.470000000000000000e+02,7.162997400000000425e+01
1.480000000000000000e+02,7.209549699999999461e+01
1.490000000000000000e+02,7.256065399999999954e+01
1.500000000000000000e+02,7.302545200000000136e+01
1.510000000000000000e+02,7.348987599999999532e+01
1.520000000000000000e+02,7.395389600000000030e+01
1.530000000000000000e+02,7.441751100000000463e+01
1.540000000000000000e+02,7.488070700000000102e+01
1.550000000000000000e+02,7.534348300000000620e+01
1.560000000000000000e+02,7.580581700000000467e+01
1.570000000000000000e+02,7.626773099999999772e+01
1.580000000000000000e+02,7.672917900000000202e+01
1.590000000000000000e+02,7.719016299999999831e+01
1.600000000000000000e+02,7.765066500000000360e+01
1.610000000000000000e+02,7.811068699999999865e+01
1.620000000000000000e+02,7.857022899999999765e+01
1.630000000000000000e+02,7.902926600000000690e+01
1.640000000000000000e+02,7.948781599999999514e+01
1.650000000000000000e+02,7.994585399999999709e+01
1.660000000000000000e+02,8.040336600000000544e+01
1.670000000000000000e+02,8.086035200000000600e+01
1.680000000000000000e+02,8.131680299999999306e+01
1.690000000000000000e+02,8.177271299999999599e+01
1.700000000000000000e+02,8.222808100000000309e+01
1.710000000000000000e+02,8.268290700000000015e+01
1.720000000000000000e+02,8.313717699999999411e+01
1.730000000000000000e+02,8.359088099999999599e+01
1.740000000000000000e+02,8.404401400000000422e+01
1.750000000000000000e+02,8.449656699999999887e+01
1.760000000000000000e+02,8.494854700000000491e+01
1.770000000000000000e+02,8.539994000000000085e+01
1.780000000000000000e+02,8.585076100000000565e+01
1.790000000000000000e+02,8.630097999999999558e+01
1.800000000000000000e+02,8.675060299999999813e+01
1.810000000000000000e+02,8.719962300000000255e+01
1.820000000000000000e+02,8.764803299999999808e+01
1.830000000000000000e+02,8.809583999999999548e+01
1.840000000000000000e+02,8.854303000000000168e+01
1.850000000000000000e+02,8.898960099999999329e+01
1.860000000000000000e+02,8.943555499999999370e+01
1.870000000000000000e+02,8.988088999999999373e+01
1.880000000000000000e+02,9.032559200000000033e+01
1.890000000000000000e+02,9.076966899999999328e+01
1.900000000000000000e+02,9.121310400000000129e+01
1.910000000000000000e+02,9.165590699999999913e+01
1.920000000000000000e+02,9.209806799999999782e+01
1.930000000000000000e+02,9.253958900000000654e+01
1.940000000000000000e+02,9.298046100000000536e+01
1.950000000000000000e+02,9.342068500000000597e+01
1.960000000000000000e+02,9.386025999999999669e+01
1.970000000000000000e+02,9.429918700000000342e+01
1.980000000000000000e+02,9.473745700000000625e+01
1.990000000000000000e+02,9.517506400000000610e+01
2.000000000000000000e+02,9.561202199999999607e+01
2.010000000000000000e+02,9.604830900000000327e+01
2.020000000000000000e+02,9.648394000000000403e+01
2.030000000000000000e+02,9.691889999999999361e+01
2.040000000000000000e+02,9.735319499999999948e+01
2.050000000000000000e+02,9.778681899999999416e+01
2.060000000000000000e+02,9.821978000000000009e+01
2.070000000000000000e+02,9.865206899999999735e+01
2.080000000000000000e+02,9.908367900000000361e+01
2.090000000000000000e+02,9.951461799999999869e+01
2.100000000000000000e+02,9.994487800000000277e+01
2.110000000000000000e+02,1.003744700000000023e+02
2.120000000000000000e+02,1.008033800000000042e+02
2.130000000000000000e+02,1.012316000000000003e+02
2.140000000000000000e+02,1.016591399999999936e+02
2.150000000000000000e+02,1.020860100000000017e+02
2.160000000000000000e+02,1.025121900000000039e+02
2.170000000000000000e+02,1.029376800000000003e+02
2.180000000000000000e+02,1.033624999999999972e+02
2.190000000000000000e+02,1.037866099999999960e+02
2.200000000000000000e+02,1.042100499999999954e+02
2.210000000000000000e+02,1.046328000000000031e+02
2.220000000000000000e+02,1.050548600000000050e+02
2.230000000000000000e+02,1.054762300000000010e+02
2.240000000000000000e+02,1.058969100000000054e+02
2.250000000000000000e+02,1.063169000000000040e+02
2.260000000000000000e+02,1.067362099999999998e+02
2.270000000000000000e+02,1.071548200000000008e+02
2.280000000000000000e+02,1.075727300000000071e+02
2.290000000000000000e+02,1.079899499999999932e+02
2.300000000000000000e+02,1.084064900000000051e+02
2.310000000000000000e+02,1.088223299999999938e+02
2.320000000000000000e+02,1.092374700000000018e+02
2.330000000000000000e+02,1.096519200000000041e+02
2.340000000000000000e+02,1.100656800000000004e+02
2.350000000000000000e+02,1.104787400000000019e+02
2.360000000000000000e+02,1.108911099999999976e+02
2.370000000000000000e+02,1.113027699999999953e+02
2.380000000000000000e+02,1.117137500000000045e+02
2.390000000000000000e+02,1.121240200000000016e+02
2.400000000000000000e+02,1.125336099999999959e+02
2.410000000000000000e+02,1.129424900000000065e+02
2.420000000000000000e+02,1.133506900000000002e+02
2.430000000000000000e+02,1.137581700000000069e+02
2.440000000000000000e+02,1.141649699999999967e+02
2.450000000000000000e+02,1.145710700000000060e+02
2.460000000000000000e+02,1.149764700000000062e+02
2.470000000000000000e+02,1.153811699999999973e+02
2.480000000000000000e+02,1.157851799999999969e+02
2.490000000000000000e+02,1.161884900000000016e+02
2.500000000000000000e+02,1.165911100000000005e+02
2.510000000000000000e+02,1.169930300000000045e+02
2.520000000000000000e+02,1.173942499999999995e+02
2.530000000000000000e+02,1.177947800000000029e+02
2.540000000000000000e+02,1.181946099999999973e+02
2.550000000000000000e+02,1.185937500000000000e+02
2.560000000000000000e+02,1.189921999999999969e+02
2.570000000000000000e+02,1.193899399999999957e+02
2.580000000000000000e+02,1.197869900000000030e+02
2.590000000000000000e+02,1.201833500000000043e+02
2.600000000000000000e+02,1.205790099999999967e+02
2.610000000000000000e+02,1.209739799999999974e+02
2.620000000000000000e+02,1.213682600000000065e+02
2.630000000000000000e+02,1.217618300000000033e+02
2.640000000000000000e+02,1.221547199999999975e+02
2.650000000000000000e+02,1.225469099999999969e+02
2.660000000000000000e+02,1.229384000000000015e+02
2.670000000000000000e+02,1.233292000000000002e+02
2.680000000000000000e+02,1.237193099999999930e+02
2.690000000000000000e+02,1.241087200000000053e+02
2.700000000000000000e+02,1.244974399999999974e+02
2.710000000000000000e+02,1.248854800000000012e+02
2.720000000000000000e+02,1.252728199999999958e+02
2.730000000000000000e+02,1.256594699999999989e+02
2.740000000000000000e+02,1.260454299999999961e+02
2.750000000000000000e+02,1.264307100000000048e+02
2.760000000000000000e+02,1.268152900000000045e+02
2.770000000000000000e+02,1.271991900000000015e+02
2.780000000000000000e+02,1.275823900000000037e+02
2.790000000000000000e+02,1.279649000000000001e+02
2.800000000000000000e+02,1.283467300000000080e+02
2.810000000000000000e+02,1.287278599999999926e+02
2.820000000000000000e+02,1.291083199999999920e+02
2.830000000000000000e+02,1.294880799999999965e+02
2.840000000000000000e+02,1.298671600000000126e+02
2.850000000000000000e+02,1.302455600000000118e+02
2.860000000000000000e+02,1.306232599999999877e+02
2.870000000000000000e+02,1.310002700000000004e+02
2.880000000000000000e+02,1.313766200000000026e+02
2.890000000000000000e+02,1.317522700000000100e+02
2.900000000000000000e+02,1.321272600000000068e+02
2.910000000000000000e+02,1.325015600000000120e+02
2.920000000000000000e+02,1.328751699999999971e+02
2.930000000000000000e+02,1.332480899999999906e+02
2.940000000000000000e+02,1.336203500000000020e+02
2.950000000000000000e+02,1.339919099999999901e+02
2.960000000000000000e+02,1.343627899999999897e+02
2.970000000000000000e+02,1.347330000000000041e+02
2.980000000000000000e+02,1.351025199999999984e+02
2.990000000000000000e+02,1.354713700000000074e+02
3.000000000000000000e+02,1.358395399999999995e+02
3.010000000000000000e+02,1.362070300000000032e+02
3.020000000000000000e+02,1.365738499999999931e+02
3.030000000000000000e+02,1.369399999999999977e+02
3.040000000000000000e+02,1.373054700000000139e+02
3.050000000000000000e+02,1.376702600000000132e+02
3.060000000000000000e+02,1.380343799999999987e+02
3.070000000000000000e+02,1.383978299999999990e+02
3.080000000000000000e+02,1.387605900000000076e+02
3.090000000000000000e+02,1.391227000000000089e+02
3.100000000000000000e+02,1.394841199999999901e+02
3.110000000000000000e+02,1.398448799999999892e+02
3.120000000000000000e+02,1.402049599999999998e+02
3.130000000000000000e+02,1.405643799999999999e+02
3.140000000000000000e+02,1.409231299999999862e+02
3.150000000000000000e+02,1.412812000000000126e+02
3.160000000000000000e+02,1.416386099999999999e+02
3.170000000000000000e+02,1.419953600000000051e+02
3.180000000000000000e+02,1.423514399999999966e+02
3.190000000000000000e+02,1.427068500000000029e+02
3.200000000000000000e+02,1.430615799999999922e+02
3.210000000000000000e+02,1.434156600000000026e+02
3.220000000000000000e+02,1.437690699999999993e+02
3.230000000000000000e+02,1.441218299999999886e+02
3.240000000000000000e+02,1.444739199999999926e+02
3.250000000000000000e+02,1.448253499999999860e+02
3.260000000000000000e+02,1.451761199999999974e+02
3.270000000000000000e+02,1.455262299999999982e+02
3.280000000000000000e+02,1.458756700000000137e+02
3.290000000000000000e+02,1.462244599999999934e+02
3.300000000000000000e+02,1.465725700000000131e+02
3.310000000000000000e+02,1.469200400000000002e+02
3.320000000000000000e+02,1.472668600000000083e+02
3.330000000000000000e+02,1.476130200000000059e+02
3.340000000000000000e+02,1.479585299999999961e+02
3.350000000000000000e+02,1.483033599999999979e+02
3.360000000000000000e+02,1.486475499999999954e+02
3.370000000000000000e+02,1.489910700000000077e+02
3.380000000000000000e+02,1.493339699999999937e+02
3.390000000000000000e+02,1.496761899999999912e+02
3.400000000000000000e+02,1.500177799999999877e+02
3.410000000000000000e+02,1.503586999999999989e+02
3.420000000000000000e+02,1.506989700000000028e+02
3.430000000000000000e+02,1.510386000000000024e+02
3.440000000000000000e+02,1.513775799999999947e+02
3.450000000000000000e+02,1.517159100000000080e+02
3.460000000000000000e+02,1.520535900000000140e+02
3.470000000000000000e+02,1.523906200000000126e+02
3.480000000000000000e+02,1.527270200000000102e+02
3.490000000000000000e+02,1.530627599999999973e+02
3.500000000000000000e+02,1.533978600000000085e+02
3.510000000000000000e+02,1.537323000000000093e+02
3.520000000000000000e+02,1.540661200000000122e+02
3.530000000000000000e+02,1.543992900000000077e+02
3.540000000000000000e+02,1.547318099999999959e+02
3.550000000000000000e+02,1.550637099999999862e+02
3.560000000000000000e+02,1.553949399999999912e+02
3.570000000000000000e+02,1.557255600000000015e+02
3.580000000000000000e+02,1.560555099999999982e+02
3.590000000000000000e+02,1.563848399999999970e+02
3.600000000000000000e+02,1.567135299999999916e+02
3.610000000000000000e+02,1.570415999999999883e+02
3.620000000000000000e+02,1.573689999999999998e+02
3.630000000000000000e+02,1.576957899999999881e+02
3.640000000000000000e+02,1.580219400000000007e+02
3.650000000000000000e+02,1.583474600000000123e+02
3.660000000000000000e+02,1.586723299999999881e+02
3.670000000000000000e+02,1.589965799999999945e+02
3.680000000000000000e+02,1.593202100000000030e+02
3.690000000000000000e+02,1.596431900000000041e+02
3.700000000000000000e+02,1.599655500000000075e+02
3.710000000000000000e+02,1.602872800000000097e+02
3.720000000000000000e+02,1.606083700000000078e+02
3.730000000000000000e+02,1.609288500000000113e+02
3.740000000000000000e+02,1.612486900000000105e+02
3.750000000000000000e+02,1.615679199999999867e+02
3.760000000000000000e+02,1.618865099999999870e+02
3.770000000000000000e+02,1.622044699999999864e+02
3.780000000000000000e+02,1.625218000000000131e+02
3.790000000000000000e+02,1.628385299999999916e+02
3.800000000000000000e+02,1.631546299999999974e+02
3.810000000000000000e+02,1.634701100000000054e+02
3.820000000000000000e+02,1.637849600000000123e+02
3.830000000000000000e+02,1.640991999999999962e+02
3.840000000000000000e+02,1.644128100000000074e+02
3.850000000000000000e+02,1.647258099999999956e+02
3.860000000000000000e+02,1.650381899999999860e+02
3.870000000000000000e+02,1.653499500000000069e+02
3.880000000000000000e+02,1.656611000000000047e+02
3.890000000000000000e+02,1.659716200000000015e+02
3.900000000000000000e+02,1.662815400000000068e+02
3.910000000000000000e+02,1.665908399999999858e+02
3.920000000000000000e+02,1.668995400000000018e+02
3.930000000000000000e+02,1.672076099999999883e+02
3.940000000000000000e+02,1.675150800000000118e+02
3.950000000000000000e+02,1.678219100000000026e+02
3.960000000000000000e+02,1.681281600000000083e+02
3.970000000000000000e+02,1.684337899999999877e+02
3.980000000000000000e+02,1.687388200000000040e+02
3.990000000000000000e+02,1.690432399999999973e+02
4.000000000000000000e+02,1.693470499999999959e+02
4.010000000000000000e+02,1.696502499999999998e+02
4.020000000000000000e+02,1.699528500000000122e+02
4.030000000000000000e+02,1.702548400000000015e+02
4.040000000000000000e+02,1.705562299999999993e+02
4.050000000000000000e+02,1.708570100000000025e+02
4.060000000000000000e+02,1.711571999999999889e+02
4.070000000000000000e+02,1.714567700000000059e+02
4.080000000000000000e+02,1.717557500000000061e+02
4.090000000000000000e+02,1.720541200000000117e+02
4.100000000000000000e+02,1.723519100000000037e+02
4.110000000000000000e+02,1.726490900000000011e+02
4.120000000000000000e+02,1.729456800000000101e+02
4.130000000000000000e+02,1.732416499999999928e+02
4.140000000000000000e+02,1.735370499999999936e+02
4.150000000000000000e+02,1.738318500000000029e+02
4.160000000000000000e+02,1.741260499999999922e+02
4.170000000000000000e+02,1.744196599999999933e+02
4.180000000000000000e+02,1.747126800000000060e+02
4.190000000000000000e+02,1.750050999999999988e+02
4.200000000000000000e+02,1.752969200000000001e+02
4.210000000000000000e+02,1.755881500000000131e+02
4.220000000000000000e+02,1.758788099999999872e+02
4.230000000000000000e+02,1.761688699999999983e+02
4.240000000000000000e+02,1.764583399999999926e+02
4.250000000000000000e+02,1.767472199999999987e+02
4.260000000000000000e+02,1.770355199999999911e+02
4.270000000000000000e+02,1.773232299999999952e+02
4.280000000000000000e+02,1.776103500000000111e+02
4.290000000000000000e+02,1.778968999999999880e+02
4.300000000000000000e+02,1.781828600000000051e+02
4.310000000000000000e+02,1.784682300000000055e+02
4.320000000000000000e+02,1.787530199999999923e+02
4.330000000000000000e+02,1.790372500000000002e+02
4.340000000000000000e+02,1.793208600000000104e+02
4.350000000000000000e+02,1.796039100000000133e+02
4.360000000000000000e+02,1.798864000000000090e+02
4.370000000000000000e+02,1.801682900000000132e+02
4.380000000000000000e+02,1.804496000000000038e+02
4.390000000000000000e+02,1.807303499999999872e+02
4.400000000000000000e+02,1.810105100000000107e+02
4.410000000000000000e+02,1.812900999999999954e+02
4.420000000000000000e+02,1.815691199999999981e+02
4.430000000000000000e+02,1.818475599999999872e+02
4.440000000000000000e+02,1.821254299999999944e+02
4.450000000000000000e+02,1.824027299999999912e+02
4.460000000000000000e+02,1.826794600000000059e+02
4.470000000000000000e+02,1.829556100000000072e+02
4.480000000000000000e+02,1.832312000000000012e+02
4.490000000000000000e+02,1.835062299999999880e+02
4.500000000000000000e+02,1.837806699999999864e+02
4.510000000000000000e+02,1.840545500000000061e+02
4.520000000000000000e+02,1.843278699999999901e+02
4.530000000000000000e+02,1.846006199999999922e+02
4.540000000000000000e+02,1.848728000000000122e+02
4.550000000000000000e+02,1.851444199999999967e+02
4.560000000000000000e+02,1.854155000000000086e+02
4.570000000000000000e+02,1.856859900000000039e+02
4.580000000000000000e+02,1.859559299999999951e+02
4.590000000000000000e+02,1.862253000000000043e+02
4.600000000000000000e+02,1.864941100000000063e+02
4.610000000000000000e+02,1.867623700000000042e+02
4.620000000000000000e+02,1.870300799999999981e+02
4.630000000000000000e+02,1.872972100000000069e+02
4.640000000000000000e+02,1.875637999999999863e+02
4.650000000000000000e+02,1.878298200000000122e+02
4.660000000000000000e+02,1.880952900000000056e+02
4.670000000000000000e+02,1.883602099999999950e+02
4.680000000000000000e+02,1.886245900000000120e+02
4.690000000000000000e+02,1.888883999999999901e+02
4.700000000000000000e+02,1.891516599999999926e+02
4.710000000000000000e+02,1.894143699999999910e+02
4.720000000000000000e+02,1.896765300000000138e+02
4.730000000000000000e+02,1.899381400000000042e+02
4.740000000000000000e+02,1.901991999999999905e+02
4.750000000000000000e+02,1.904597200000000043e+02
4.760000000000000000e+02,1.907196800000000110e+02
4.770000000000000000e+02,1.909790999999999883e+02
4.780000000000000000e+02,1.912379599999999868e+02
4.790000000000000000e+02,1.914962899999999877e+02
4.800000000000000000e+02,1.917540700000000129e+02
4.810000000000000000e+02,1.920113200000000120e+02
4.820000000000000000e+02,1.922680200000000070e+02
4.830000000000000000e+02,1.925241699999999980e+02
4.840000000000000000e+02,1.927797899999999913e+02
4.850000000000000000e+02,1.930348700000000122e+02
4.860000000000000000e+02,1.932894000000000005e+02
4.870000000000000000e+02,1.935433999999999912e+02
4.880000000000000000e+02,1.937968600000000094e+02
4.890000000000000000e+02,1.940497900000000016e+02
4.900000000000000000e+02,1.943021699999999896e+02
4.910000000000000000e+02,1.945540300000000116e+02
4.920000000000000000e+02,1.948053400000000011e+02
4.930000000000000000e+02,1.950561399999999992e+02
4.940000000000000000e+02,1.953063799999999901e+02
4.950000000000000000e+02,1.955561099999999897e+02
4.960000000000000000e+02,1.958052800000000104e+02
4.970000000000000000e+02,1.960539400000000114e+02
4.980000000000000000e+02,1.963020799999999895e+02
4.990000000000000000e+02,1.965496699999999919e+02
5.000000000000000000e+02,1.967967399999999998e+02
5.010000000000000000e+02,1.970432900000000132e+02
5.020000000000000000e+02,1.972892899999999941e+02
5.030000000000000000e+02,1.975347899999999868e+02
5.040000000000000000e+02,1.977797500000000070e+02
5.050000000000000000e+02,1.980242000000000075e+02
5.060000000000000000e+02,1.982681100000000072e+02
5.070000000000000000e+02,1.985115099999999870e+02
5.080000000000000000e+02,1.987543799999999976e+02
5.090000000000000000e+02,1.989967300000000137e+02
5.100000000000000000e+02,1.992385700000000099e+02
5.110000000000000000e+02,1.994798700000000053e+02
5.120000000000000000e+02,1.997206700000000126e+02
5.130000000000000000e+02,1.999609499999999969e+02
5.140000000000000000e+02,2.002007000000000119e+02
5.150000000000000000e+02,2.004399400000000071e+02
5.160000000000000000e+02,2.006786800000000142e+02
5.170000000000000000e+02,2.009168899999999951e+02
5.180000000000000000e+02,2.011545900000000131e+02
5.190000000000000000e+02,2.013917700000000082e+02
5.200000000000000000e+02,2.016284300000000087e+02
5.210000000000000000e+02,2.018646099999999990e+02
5.220000000000000000e+02,2.021002499999999884e+02
5.230000000000000000e+02,2.023353899999999896e+02
5.240000000000000000e+02,2.025700199999999995e+02
5.250000000000000000e+02,2.028041399999999896e+02
5.260000000000000000e+02,2.030377699999999948e+02
5.270000000000000000e+02,2.032708700000000022e+02
5.280000000000000000e+02,2.035034599999999898e+02
5.290000000000000000e+02,2.037355699999999956e+02
5.300000000000000000e+02,2.039671600000000069e+02
5.310000000000000000e+02,2.041982399999999984e+02
5.320000000000000000e+02,2.044288300000000049e+02
5.330000000000000000e+02,2.046589199999999948e+02
5.340000000000000000e+02,2.048884999999999934e+02
5.350000000000000000e+02,2.051175800000000038e+02
5.360000000000000000e+02,2.053461599999999976e+02
5.370000000000000000e+02,2.055742500000000064e+02
5.380000000000000000e+02,2.058018299999999954e+02
5.390000000000000000e+02,2.060289199999999994e+02
5.400000000000000000e+02,2.062555099999999868e+02
5.410000000000000000e+02,2.064816099999999892e+02
5.420000000000000000e+02,2.067072100000000034e+02
5.430000000000000000e+02,2.069323100000000011e+02
5.440000000000000000e+02,2.071569399999999916e+02
5.450000000000000000e+02,2.073810599999999909e+02
5.460000000000000000e+02,2.076046800000000019e+02
5.470000000000000000e+02,2.078278200000000027e+02
5.480000000000000000e+02,2.080504599999999868e+02
5.490000000000000000e+02,2.082726299999999924e+02
5.500000000000000000e+02,2.084942900000000066e+02
5.510000000000000000e+02,2.087154800000000137e+02
5.520000000000000000e+02,2.089361700000000042e+02
5.530000000000000000e+02,2.091563899999999876e+02
5.540000000000000000e+02,2.093761100000000113e+02
5.550000000000000000e+02,2.095953499999999963e+02
5.560000000000000000e+02,2.098140999999999963e+02
5.570000000000000000e+02,2.100323799999999892e+02
5.580000000000000000e+02,2.102501699999999971e+02
5.590000000000000000e+02,2.104674699999999916e+02
5.600000000000000000e+02,2.106843000000000075e+02
5.610000000000000000e+02,2.109006500000000131e+02
5.620000000000000000e+02,2.111165200000000084e+02
5.630000000000000000e+02,2.113319099999999935e+02
5.640000000000000000e+02,2.115468299999999999e+02
5.650000000000000000e+02,2.117612599999999929e+02
5.660000000000000000e+02,2.119752200000000073e+02
5.670000000000000000e+02,2.121887099999999862e+02
5.680000000000000000e+02,2.124017200000000116e+02
5.690000000000000000e+02,2.126142600000000016e+02
5.700000000000000000e+02,2.128263100000000065e+02
5.710000000000000000e+02,2.130379000000000076e+02
5.720000000000000000e+02,2.132490200000000016e+02
5.730000000000000000e+02,2.134596899999999948e+02
5.740000000000000000e+02,2.136698599999999999e+02
5.750000000000000000e+02,2.138795800000000042e+02
5.760000000000000000e+02,2.140888199999999983e+02
5.770000000000000000e+02,2.142976099999999917e+02
5.780000000000000000e+02,2.145059100000000001e+02
5.790000000000000000e+02,2.147137600000000077e+02
5.800000000000000000e+02,2.149211400000000083e+02
5.810000000000000000e+02,2.151280500000000018e+02
5.820000000000000000e+02,2.153345199999999977e+02
5.830000000000000000e+02,2.155405100000000118e+02
5.840000000000000000e+02,2.157460299999999904e+02
5.850000000000000000e+02,2.159511099999999999e+02
5.860000000000000000e+02,2.161557200000000023e+02
5.870000000000000000e+02,2.163598599999999976e+02
5.880000000000000000e+02,2.165635699999999986e+02
5.890000000000000000e+02,2.167667999999999893e+02
5.900000000000000000e+02,2.169695700000000045e+02
5.910000000000000000e+02,2.171719099999999969e+02
5.920000000000000000e+02,2.173737600000000043e+02
5.930000000000000000e+02,2.175751799999999889e+02
5.940000000000000000e+02,2.177761399999999981e+02
5.950000000000000000e+02,2.179766500000000065e+02
5.960000000000000000e+02,2.181767000000000110e+02
5.970000000000000000e+02,2.183762999999999863e+02
5.980000000000000000e+02,2.185754499999999894e+02
5.990000000000000000e+02,2.187741499999999917e+02