# Time [s], Temperature [C]
1.000000000000000000e+00,2.499997099999999861e+01
2.000000000000000000e+00,3.362914299999999912e+01
3.000000000000000000e+00,3.844309599999999705e+01
4.000000000000000000e+00,4.237948599999999999e+01
5.000000000000000000e+00,4.566382600000000025e+01
6.000000000000000000e+00,4.855505399999999838e+01
7.000000000000000000e+00,5.114895200000000131e+01
8.000000000000000000e+00,5.351820000000000022e+01
9.000000000000000000e+00,5.570659599999999756e+01
1.000000000000000000e+01,5.774673500000000104e+01
1.100000000000000000e+01,5.966215100000000149e+01
1.200000000000000000e+01,6.147063399999999689e+01
1.300000000000000000e+01,6.318661500000000331e+01
1.400000000000000000e+01,6.482070899999999369e+01
1.500000000000000000e+01,6.638254499999999325e+01
1.600000000000000000e+01,6.787942499999999768e+01
1.700000000000000000e+01,6.931803100000000484e+01
1.800000000000000000e+01,7.070340699999999856e+01
1.900000000000000000e+01,7.204013100000000236e+01
2.000000000000000000e+01,7.333241999999999905e+01
2.100000000000000000e+01,7.458355699999999899e+01
2.200000000000000000e+01,7.579640999999999451e+01
2.300000000000000000e+01,7.697418199999999899e+01
2.400000000000000000e+01,7.811883500000000424e+01
2.500000000000000000e+01,7.923261300000000062e+01
2.600000000000000000e+01,8.031772599999999329e+01
2.700000000000000000e+01,8.137528199999999856e+01
2.800000000000000000e+01,8.240728799999999410e+01
2.900000000000000000e+01,8.341520699999999522e+01
3.000000000000000000e+01,8.439986399999999378e+01
3.100000000000000000e+01,8.536305199999999616e+01
3.200000000000000000e+01,8.630536700000000394e+01
3.300000000000000000e+01,8.722819499999999948e+01
3.400000000000000000e+01,8.813231700000000046e+01
3.500000000000000000e+01,8.901832600000000184e+01
3.600000000000000000e+01,8.988740500000000111e+01
3.700000000000000000e+01,9.074015799999999388e+01
3.800000000000000000e+01,9.157739999999999725e+01
3.900000000000000000e+01,9.239931500000000142e+01
4.000000000000000000e+01,9.320672600000000330e+01
4.100000000000000000e+01,9.400057999999999936e+01
4.200000000000000000e+01,9.478104399999999430e+01
4.300000000000000000e+01,9.554869800000000168e+01
4.400000000000000000e+01,9.630425999999999931e+01
4.500000000000000000e+01,9.704772199999999316e+01
4.600000000000000000e+01,9.777972400000000164e+01
4.700000000000000000e+01,9.850090000000000146e+01
4.800000000000000000e+01,9.921125800000000083e+01
4.900000000000000000e+01,9.991125499999999704e+01
5.000000000000000000e+01,1.006014700000000062e+02
5.100000000000000000e+01,1.012817900000000009e+02
5.200000000000000000e+01,1.019529399999999981e+02
5.300000000000000000e+01,1.026150899999999950e+02
5.400000000000000000e+01,1.032685500000000047e+02
5.500000000000000000e+01,1.039133099999999956e+02
5.600000000000000000e+01,1.045501299999999958e+02
5.700000000000000000e+01,1.051789600000000036e+02
5.800000000000000000e+01,1.058000899999999973e+02
5.900000000000000000e+01,1.064138599999999997e+02
6.000000000000000000e+01,1.070201299999999947e+02
6.100000000000000000e+01,1.076195900000000023e+02
6.200000000000000000e+01,1.082120400000000018e+02
6.300000000000000000e+01,1.087981099999999941e+02
6.400000000000000000e+01,1.093774400000000071e+02
6.500000000000000000e+01,1.099509000000000043e+02
6.600000000000000000e+01,1.105179399999999958e+02
6.700000000000000000e+01,1.110793400000000020e+02
6.800000000000000000e+01,1.116347899999999953e+02
6.900000000000000000e+01,1.121848899999999958e+02
7.000000000000000000e+01,1.127293899999999951e+02
7.100000000000000000e+01,1.132686800000000034e+02
7.200000000000000000e+01,1.138029800000000051e+02
7.300000000000000000e+01,1.143319999999999936e+02
7.400000000000000000e+01,1.148564800000000048e+02
7.500000000000000000e+01,1.153761800000000051e+02
7.600000000000000000e+01,1.158911300000000040e+02
7.700000000000000000e+01,1.164016500000000036e+02
7.800000000000000000e+01,1.169079700000000059e+02
7.900000000000000000e+01,1.174098400000000026e+02
8.000000000000000000e+01,1.179076500000000038e+02
8.100000000000000000e+01,1.184015700000000066e+02
8.200000000000000000e+01,1.188913500000000028e+02
8.300000000000000000e+01,1.193774999999999977e+02
8.400000000000000000e+01,1.198598099999999960e+02
8.500000000000000000e+01,1.203386399999999981e+02
8.600000000000000000e+01,1.208137799999999942e+02
8.700000000000000000e+01,1.212855100000000022e+02
8.800000000000000000e+01,1.217539299999999969e+02
8.900000000000000000e+01,1.222190599999999989e+02
9.000000000000000000e+01,1.226808500000000066e+02
9.100000000000000000e+01,1.231395600000000030e+02
9.200000000000000000e+01,1.235953700000000026e+02
9.300000000000000000e+01,1.240481900000000053e+02
9.400000000000000000e+01,1.244980599999999953e+02
9.500000000000000000e+01,1.249449999999999932e+02
9.600000000000000000e+01,1.253891399999999976e+02
9.700000000000000000e+01,1.258306800000000010e+02
9.800000000000000000e+01,1.262696899999999971e+02
9.900000000000000000e+01,1.267060900000000032e+02
1.000000000000000000e+02,1.271398800000000051e+02
1.010000000000000000e+02,1.275712500000000063e+02
1.020000000000000000e+02,1.280002299999999877e+02
1.030000000000000000e+02,1.284266700000000014e+02
1.040000000000000000e+02,1.288509699999999896e+02
1.050000000000000000e+02,1.292729799999999898e+02
1.060000000000000000e+02,1.296926699999999926e+02
1.070000000000000000e+02,1.301103699999999890e+02
1.080000000000000000e+02,1.305258599999999944e+02
1.090000000000000000e+02,1.309393300000000124e+02
1.100000000000000000e+02,1.313508500000000083e+02
1.110000000000000000e+02,1.317603300000000104e+02
1.120000000000000000e+02,1.321678499999999872e+02
1.130000000000000000e+02,1.325735300000000052e+02
1.140000000000000000e+02,1.329773299999999949e+02
1.150000000000000000e+02,1.333791200000000003e+02
1.160000000000000000e+02,1.337792699999999968e+02
1.170000000000000000e+02,1.341776399999999967e+02
1.180000000000000000e+02,1.345742600000000095e+02
1.190000000000000000e+02,1.349692200000000071e+02
1.200000000000000000e+02,1.353625199999999893e+02
1.210000000000000000e+02,1.357541799999999910e+02
1.220000000000000000e+02,1.361442700000000059e+02
1.230000000000000000e+02,1.365327599999999961e+02
1.240000000000000000e+02,1.369197200000000123e+02
1.250000000000000000e+02,1.373052199999999914e+02
1.260000000000000000e+02,1.376892100000000028e+02
1.270000000000000000e+02,1.380716999999999928e+02
1.280000000000000000e+02,1.384528200000000027e+02
1.290000000000000000e+02,1.388325000000000102e+02
1.300000000000000000e+02,1.392107699999999966e+02
1.310000000000000000e+02,1.395877199999999903e+02
1.320000000000000000e+02,1.399632900000000006e+02
1.330000000000000000e+02,1.403375200000000120e+02
1.340000000000000000e+02,1.407106300000000090e+02
1.350000000000000000e+02,1.410822900000000004e+02
1.360000000000000000e+02,1.414526999999999930e+02
1.370000000000000000e+02,1.418218999999999994e+02
1.380000000000000000e+02,1.421898300000000006e+02
1.390000000000000000e+02,1.425565499999999872e+02
1.400000000000000000e+02,1.429223000000000070e+02
1.410000000000000000e+02,1.432867300000000057e+02
1.420000000000000000e+02,1.436499499999999898e+02
1.430000000000000000e+02,1.440120699999999943e+02
1.440000000000000000e+02,1.443730199999999968e+02
1.450000000000000000e+02,1.447328200000000038e+02
1.460000000000000000e+02,1.450915999999999997e+02
1.470000000000000000e+02,1.454493400000000065e+02
1.480000000000000000e+02,1.458058900000000051e+02
1.490000000000000000e+02,1.461614700000000084e+02
1.500000000000000000e+02,1.465159500000000037e+02
1.510000000000000000e+02,1.468694000000000131e+02
1.520000000000000000e+02,1.472218599999999924e+02
1.530000000000000000e+02,1.475732899999999859e+02
1.540000000000000000e+02,1.479237200000000030e+02
1.550000000000000000e+02,1.482734199999999873e+02
1.560000000000000000e+02,1.486221299999999985e+02
1.570000000000000000e+02,1.489696999999999889e+02
1.580000000000000000e+02,1.493163800000000094e+02
1.590000000000000000e+02,1.496620499999999936e+02
1.600000000000000000e+02,1.500067699999999888e+02
1.610000000000000000e+02,1.503506199999999922e+02
1.620000000000000000e+02,1.506935000000000002e+02
1.630000000000000000e+02,1.510354499999999973e+02
1.640000000000000000e+02,1.513766599999999869e+02
1.650000000000000000e+02,1.517169800000000066e+02
1.660000000000000000e+02,1.520563400000000058e+02
1.670000000000000000e+02,1.523948200000000099e+02
1.680000000000000000e+02,1.527324199999999905e+02
1.690000000000000000e+02,1.530691799999999887e+02
1.700000000000000000e+02,1.534052000000000078e+02
1.710000000000000000e+02,1.537403999999999940e+02
1.720000000000000000e+02,1.540746499999999912e+02
1.730000000000000000e+02,1.544081099999999935e+02
1.740000000000000000e+02,1.547408399999999915e+02
1.750000000000000000e+02,1.550726500000000101e+02
1.760000000000000000e+02,1.554036600000000021e+02
1.770000000000000000e+02,1.557339200000000119e+02
1.780000000000000000e+02,1.560632300000000043e+02
1.790000000000000000e+02,1.563918799999999862e+02
1.800000000000000000e+02,1.567196999999999889e+02
1.810000000000000000e+02,1.570468299999999999e+02
1.820000000000000000e+02,1.573731200000000001e+02
1.830000000000000000e+02,1.576987000000000023e+02
1.840000000000000000e+02,1.580233800000000031e+02
1.850000000000000000e+02,1.583473799999999869e+02
1.860000000000000000e+02,1.586705599999999947e+02
1.870000000000000000e+02,1.589929700000000139e+02
1.880000000000000000e+02,1.593148799999999881e+02
1.890000000000000000e+02,1.596360200000000020e+02
1.900000000000000000e+02,1.599562500000000114e+02
1.910000000000000000e+02,1.602758000000000038e+02
1.920000000000000000e+02,1.605945700000000045e+02
1.930000000000000000e+02,1.609126100000000008e+02
1.940000000000000000e+02,1.612302099999999996e+02
1.950000000000000000e+02,1.615468799999999874e+02
1.960000000000000000e+02,1.618628400000000056e+02
1.970000000000000000e+02,1.621780699999999911e+02
1.980000000000000000e+02,1.624925399999999911e+02
1.990000000000000000e+02,1.628063699999999869e+02
2.000000000000000000e+02,1.631195800000000133e+02
2.010000000000000000e+02,1.634319800000000100e+02
2.020000000000000000e+02,1.637436999999999898e+02
2.030000000000000000e+02,1.640548900000000003e+02
2.040000000000000000e+02,1.643651999999999873e+02
2.050000000000000000e+02,1.646749599999999987e+02
2.060000000000000000e+02,1.649839800000000025e+02
2.070000000000000000e+02,1.652922399999999925e+02
2.080000000000000000e+02,1.655999300000000005e+02
2.090000000000000000e+02,1.659069200000000137e+02
2.100000000000000000e+02,1.662133300000000133e+02
2.110000000000000000e+02,1.665189699999999959e+02
2.120000000000000000e+02,1.668240199999999902e+02
2.130000000000000000e+02,1.671282500000000084e+02
2.140000000000000000e+02,1.674318399999999940e+02
2.150000000000000000e+02,1.677349700000000041e+02
2.160000000000000000e+02,1.680373099999999909e+02
2.170000000000000000e+02,1.683390400000000113e+02
2.180000000000000000e+02,1.686400600000000054e+02
2.190000000000000000e+02,1.689404399999999953e+02
2.200000000000000000e+02,1.692402999999999906e+02
2.210000000000000000e+02,1.695395100000000070e+02
2.220000000000000000e+02,1.698379099999999937e+02
2.230000000000000000e+02,1.701356700000000046e+02
2.240000000000000000e+02,1.704328299999999956e+02
2.250000000000000000e+02,1.707295699999999954e+02
2.260000000000000000e+02,1.710254700000000128e+02
2.270000000000000000e+02,1.713207600000000070e+02
2.280000000000000000e+02,1.716153600000000097e+02
2.290000000000000000e+02,1.719095199999999863e+02
2.300000000000000000e+02,1.722029400000000123e+02
2.310000000000000000e+02,1.724957100000000025e+02
2.320000000000000000e+02,1.727878100000000074e+02
2.330000000000000000e+02,1.730795300000000054e+02
2.340000000000000000e+02,1.733703899999999862e+02
2.350000000000000000e+02,1.736606800000000135e+02
2.360000000000000000e+02,1.739503899999999987e+02
2.370000000000000000e+02,1.742394899999999893e+02
2.380000000000000000e+02,1.745279500000000041e+02
2.390000000000000000e+02,1.748158400000000086e+02
2.400000000000000000e+02,1.751031600000000026e+02
2.410000000000000000e+02,1.753897100000000080e+02
2.420000000000000000e+02,1.756758100000000127e+02
2.430000000000000000e+02,1.759611800000000130e+02
2.440000000000000000e+02,1.762460199999999872e+02
2.450000000000000000e+02,1.765302100000000110e+02
2.460000000000000000e+02,1.768138999999999896e+02
2.470000000000000000e+02,1.770969499999999925e+02
2.480000000000000000e+02,1.773793499999999881e+02
2.490000000000000000e+02,1.776612700000000018e+02
2.500000000000000000e+02,1.779424600000000112e+02
2.510000000000000000e+02,1.782231800000000135e+02
2.520000000000000000e+02,1.785031099999999924e+02
2.530000000000000000e+02,1.787826100000000054e+02
2.540000000000000000e+02,1.790615799999999922e+02
2.550000000000000000e+02,1.793397799999999904e+02
2.560000000000000000e+02,1.796173900000000003e+02
2.570000000000000000e+02,1.798945799999999906e+02
2.580000000000000000e+02,1.801711599999999862e+02
2.590000000000000000e+02,1.804469599999999900e+02
2.600000000000000000e+02,1.807222899999999868e+02
2.610000000000000000e+02,1.809972099999999955e+02
2.620000000000000000e+02,1.812713500000000124e+02
2.630000000000000000e+02,1.815449399999999969e+02
2.640000000000000000e+02,1.818180999999999869e+02
2.650000000000000000e+02,1.820905199999999979e+02
2.660000000000000000e+02,1.823624100000000112e+02
2.670000000000000000e+02,1.826337100000000078e+02
2.680000000000000000e+02,1.829044299999999907e+02
2.690000000000000000e+02,1.831746200000000044e+02
2.700000000000000000e+02,1.834442600000000141e+02
2.710000000000000000e+02,1.837132900000000006e+02
2.720000000000000000e+02,1.839817500000000052e+02
2.730000000000000000e+02,1.842495999999999867e+02
2.740000000000000000e+02,1.845170300000000054e+02
2.750000000000000000e+02,1.847837399999999946e+02
2.760000000000000000e+02,1.850499000000000080e+02
2.770000000000000000e+02,1.853155399999999986e+02
2.780000000000000000e+02,1.855806699999999978e+02
2.790000000000000000e+02,1.858451200000000085e+02
2.800000000000000000e+02,1.861090700000000027e+02
2.810000000000000000e+02,1.863725399999999865e+02
2.820000000000000000e+02,1.866353300000000104e+02
2.830000000000000000e+02,1.868976000000000113e+02
2.840000000000000000e+02,1.871593900000000019e+02
2.850000000000000000e+02,1.874205300000000136e+02
2.860000000000000000e+02,1.876811199999999928e+02
2.870000000000000000e+02,1.879412199999999871e+02
2.880000000000000000e+02,1.882007099999999866e+02
2.890000000000000000e+02,1.884596600000000137e+02
2.900000000000000000e+02,1.887180199999999957e+02
2.910000000000000000e+02,1.889759999999999991e+02
2.920000000000000000e+02,1.892332299999999918e+02
2.930000000000000000e+02,1.894899900000000059e+02
2.940000000000000000e+02,1.897463400000000036e+02
2.950000000000000000e+02,1.900019100000000094e+02
2.960000000000000000e+02,1.902570000000000050e+02
2.970000000000000000e+02,1.905116999999999905e+02
2.980000000000000000e+02,1.907656900000000064e+02
2.990000000000000000e+02,1.910191499999999962e+02
3.000000000000000000e+02,1.912722300000000075e+02
3.010000000000000000e+02,1.915245999999999924e+02
3.020000000000000000e+02,1.917764300000000048e+02
3.030000000000000000e+02,1.920278900000000135e+02
3.040000000000000000e+02,1.922786299999999926e+02
3.050000000000000000e+02,1.925289500000000089e+02
3.060000000000000000e+02,1.927787199999999928e+02
3.070000000000000000e+02,1.930278900000000135e+02
3.080000000000000000e+02,1.932766100000000051e+02
3.090000000000000000e+02,1.935247699999999895e+02
3.100000000000000000e+02,1.937723499999999888e+02
3.110000000000000000e+02,1.940195799999999906e+02
3.120000000000000000e+02,1.942660500000000070e+02
3.130000000000000000e+02,1.945120799999999974e+02
3.140000000000000000e+02,1.947576400000000092e+02
3.150000000000000000e+02,1.950025599999999883e+02
3.160000000000000000e+02,1.952470099999999888e+02
3.170000000000000000e+02,1.954910000000000139e+02
3.180000000000000000e+02,1.957343299999999999e+02
3.190000000000000000e+02,1.959771900000000073e+02
3.200000000000000000e+02,1.962196199999999919e+02
3.210000000000000000e+02,1.964614699999999914e+02
3.220000000000000000e+02,1.967026799999999866e+02
3.230000000000000000e+02,1.969435900000000004e+02
3.240000000000000000e+02,1.971839099999999974e+02
3.250000000000000000e+02,1.974237099999999998e+02
3.260000000000000000e+02,1.976630199999999888e+02
3.270000000000000000e+02,1.979016900000000021e+02
3.280000000000000000e+02,1.981399499999999989e+02
3.290000000000000000e+02,1.983777200000000107e+02
3.300000000000000000e+02,1.986148200000000088e+02
3.310000000000000000e+02,1.988516099999999938e+02
3.320000000000000000e+02,1.990877199999999903e+02
3.330000000000000000e+02,1.993234400000000051e+02
3.340000000000000000e+02,1.995586199999999906e+02
3.350000000000000000e+02,1.997932099999999878e+02
3.360000000000000000e+02,2.000274699999999939e+02
3.370000000000000000e+02,2.002610300000000052e+02
3.380000000000000000e+02,2.004942499999999939e+02
3.390000000000000000e+02,2.007269000000000005e+02
3.400000000000000000e+02,2.009589400000000126e+02
3.410000000000000000e+02,2.011907199999999989e+02
3.420000000000000000e+02,2.014217999999999904e+02
3.430000000000000000e+02,2.016523300000000063e+02
3.440000000000000000e+02,2.018825999999999965e+02
3.450000000000000000e+02,2.021121699999999919e+02
3.460000000000000000e+02,2.023413700000000119e+02
3.470000000000000000e+02,2.025699600000000089e+02
3.480000000000000000e+02,2.027981100000000083e+02
3.490000000000000000e+02,2.030257400000000132e+02
3.500000000000000000e+02,2.032529100000000142e+02
3.510000000000000000e+02,2.034796399999999892e+02
3.520000000000000000e+02,2.037057299999999884e+02
3.530000000000000000e+02,2.039314599999999871e+02
3.540000000000000000e+02,2.041566300000000069e+02
3.550000000000000000e+02,2.043813499999999976e+02
3.560000000000000000e+02,2.046055900000000065e+02
3.570000000000000000e+02,2.048292800000000113e+02
3.580000000000000000e+02,2.050526299999999935e+02
3.590000000000000000e+02,2.052753099999999904e+02
3.600000000000000000e+02,2.054975699999999961e+02
3.610000000000000000e+02,2.057193499999999915e+02
3.620000000000000000e+02,2.059406899999999894e+02
3.630000000000000000e+02,2.061615299999999991e+02
3.640000000000000000e+02,2.063818400000000111e+02
3.650000000000000000e+02,2.066016400000000033e+02
3.660000000000000000e+02,2.068210400000000107e+02
3.670000000000000000e+02,2.070399299999999982e+02
3.680000000000000000e+02,2.072583899999999915e+02
3.690000000000000000e+02,2.074763299999999902e+02
3.700000000000000000e+02,2.076937900000000070e+02
3.710000000000000000e+02,2.079108400000000074e+02
3.720000000000000000e+02,2.081272600000000068e+02
3.730000000000000000e+02,2.083433799999999962e+02
3.740000000000000000e+02,2.085588799999999878e+02
3.750000000000000000e+02,2.087740000000000009e+02
3.760000000000000000e+02,2.089886199999999974e+02
3.770000000000000000e+02,2.092027999999999963e+02
3.780000000000000000e+02,2.094165199999999913e+02
3.790000000000000000e+02,2.096295900000000074e+02
3.800000000000000000e+02,2.098424500000000137e+02
3.810000000000000000e+02,2.100546600000000126e+02
3.820000000000000000e+02,2.102665399999999920e+02
3.830000000000000000e+02,2.104778599999999926e+02
3.840000000000000000e+02,2.106888600000000054e+02
3.850000000000000000e+02,2.108992000000000075e+02
3.860000000000000000e+02,2.111092700000000093e+02
3.870000000000000000e+02,2.113186800000000005e+02
3.880000000000000000e+02,2.115277100000000132e+02
3.890000000000000000e+02,2.117363300000000095e+02
3.900000000000000000e+02,2.119444100000000049e+02
3.910000000000000000e+02,2.121521500000000060e+02
3.920000000000000000e+02,2.123593099999999936e+02
3.930000000000000000e+02,2.125661200000000122e+02
3.940000000000000000e+02,2.127723200000000077e+02
3.950000000000000000e+02,2.129782700000000091e+02
3.960000000000000000e+02,2.131835800000000063e+02
3.970000000000000000e+02,2.133885999999999967e+02
3.980000000000000000e+02,2.135930500000000052e+02
3.990000000000000000e+02,2.137970899999999972e+02
4.000000000000000000e+02,2.140006300000000010e+02
4.010000000000000000e+02,2.142038100000000043e+02
4.020000000000000000e+02,2.144064799999999877e+02
4.030000000000000000e+02,2.146087200000000053e+02
4.040000000000000000e+02,2.148105300000000000e+02
4.050000000000000000e+02,2.150118999999999971e+02
4.060000000000000000e+02,2.152127800000000093e+02
4.070000000000000000e+02,2.154132799999999861e+02
4.080000000000000000e+02,2.156133000000000095e+02
4.090000000000000000e+02,2.158128499999999974e+02
4.100000000000000000e+02,2.160119899999999973e+02
4.110000000000000000e+02,2.162106899999999996e+02
4.120000000000000000e+02,2.164089199999999948e+02
4.130000000000000000e+02,2.166067999999999927e+02
4.140000000000000000e+02,2.168041699999999992e+02
4.150000000000000000e+02,2.170011100000000113e+02
4.160000000000000000e+02,2.171976300000000037e+02
4.170000000000000000e+02,2.173937099999999987e+02
4.180000000000000000e+02,2.175893199999999865e+02
4.190000000000000000e+02,2.177845599999999990e+02
4.200000000000000000e+02,2.179792300000000012e+02
4.210000000000000000e+02,2.181736300000000028e+02
4.220000000000000000e+02,2.183674499999999910e+02
4.230000000000000000e+02,2.185609900000000039e+02
4.240000000000000000e+02,2.187539199999999937e+02
4.250000000000000000e+02,2.189466400000000021e+02
4.260000000000000000e+02,2.191387499999999875e+02
4.270000000000000000e+02,2.193305699999999945e+02
4.280000000000000000e+02,2.195218500000000006e+02
4.290000000000000000e+02,2.197128299999999967e+02
4.300000000000000000e+02,2.199032300000000077e+02
4.310000000000000000e+02,2.200934000000000026e+02
4.320000000000000000e+02,2.202829600000000028e+02
4.330000000000000000e+02,2.204722399999999993e+02
4.340000000000000000e+02,2.206610000000000014e+02
4.350000000000000000e+02,2.208494599999999934e+02
4.360000000000000000e+02,2.210373199999999940e+02
4.370000000000000000e+02,2.212249600000000100e+02
4.380000000000000000e+02,2.214120299999999872e+02
4.390000000000000000e+02,2.215986900000000048e+02
4.400000000000000000e+02,2.217850200000000029e+02
4.410000000000000000e+02,2.219708699999999908e+02
4.420000000000000000e+02,2.221563299999999970e+02
4.430000000000000000e+02,2.223413799999999867e+02
4.440000000000000000e+02,2.225261099999999885e+02
4.450000000000000000e+02,2.227102500000000020e+02
4.460000000000000000e+02,2.228941700000000026e+02
4.470000000000000000e+02,2.230774800000000084e+02
4.480000000000000000e+02,2.232605299999999886e+02
4.490000000000000000e+02,2.234430499999999995e+02
4.500000000000000000e+02,2.236252900000000068e+02
4.510000000000000000e+02,2.238069600000000037e+02
4.520000000000000000e+02,2.239884000000000128e+02
4.530000000000000000e+02,2.241693099999999959e+02
4.540000000000000000e+02,2.243498199999999940e+02
4.550000000000000000e+02,2.245300100000000043e+02
4.560000000000000000e+02,2.247097300000000075e+02
4.570000000000000000e+02,2.248890499999999975e+02
4.580000000000000000e+02,2.250680099999999868e+02
4.590000000000000000e+02,2.252465500000000134e+02
4.600000000000000000e+02,2.254246500000000140e+02
4.610000000000000000e+02,2.256024199999999951e+02
4.620000000000000000e+02,2.257797700000000134e+02
4.630000000000000000e+02,2.259566000000000088e+02
4.640000000000000000e+02,2.261332400000000007e+02
4.650000000000000000e+02,2.263093700000000013e+02
4.660000000000000000e+02,2.264850900000000138e+02
4.670000000000000000e+02,2.266604499999999973e+02
4.680000000000000000e+02,2.268353999999999928e+02
4.690000000000000000e+02,2.270099199999999939e+02
4.700000000000000000e+02,2.271841300000000103e+02
4.710000000000000000e+02,2.273579300000000103e+02
4.720000000000000000e+02,2.275312299999999937e+02
4.730000000000000000e+02,2.277043299999999988e+02
4.740000000000000000e+02,2.278768599999999935e+02
4.750000000000000000e+02,2.280491299999999910e+02
4.760000000000000000e+02,2.282209900000000005e+02
4.770000000000000000e+02,2.283924599999999998e+02
4.780000000000000000e+02,2.285635100000000079e+02
4.790000000000000000e+02,2.287342199999999934e+02
4.800000000000000000e+02,2.289045299999999941e+02
4.810000000000000000e+02,2.290743400000000065e+02
4.820000000000000000e+02,2.292439400000000091e+02
4.830000000000000000e+02,2.294129900000000077e+02
4.840000000000000000e+02,2.295817900000000122e+02
4.850000000000000000e+02,2.297501800000000003e+02
4.860000000000000000e+02,2.299181800000000067e+02
4.870000000000000000e+02,2.300858000000000061e+02
4.880000000000000000e+02,2.302529900000000112e+02
4.890000000000000000e+02,2.304199099999999873e+02
4.900000000000000000e+02,2.305862899999999911e+02
4.910000000000000000e+02,2.307524899999999946e+02
4.920000000000000000e+02,2.309181800000000067e+02
4.930000000000000000e+02,2.310834999999999866e+02
4.940000000000000000e+02,2.312485700000000008e+02
4.950000000000000000e+02,2.314130900000000111e+02
4.960000000000000000e+02,2.315773599999999988e+02
4.970000000000000000e+02,2.317411500000000046e+02
4.980000000000000000e+02,2.319046800000000133e+02
4.990000000000000000e+02,2.320677300000000116e+02
5.000000000000000000e+02,2.322304800000000000e+02
5.010000000000000000e+02,2.323929100000000005e+02
5.020000000000000000e+02,2.325548400000000129e+02
5.030000000000000000e+02,2.327165699999999902e+02
5.040000000000000000e+02,2.328777900000000045e+02
5.050000000000000000e+02,2.330386499999999899e+02
5.060000000000000000e+02,2.331991999999999905e+02
5.070000000000000000e+02,2.333593400000000031e+02
5.080000000000000000e+02,2.335192000000000121e+02
5.090000000000000000e+02,2.336785999999999888e+02
5.100000000000000000e+02,2.338376499999999965e+02
5.110000000000000000e+02,2.339963700000000131e+02
5.120000000000000000e+02,2.341547099999999944e+02
5.130000000000000000e+02,2.343127399999999909e+02
5.140000000000000000e+02,2.344703100000000120e+02
5.150000000000000000e+02,2.346275799999999947e+02
5.160000000000000000e+02,2.347844499999999925e+02
5.170000000000000000e+02,2.349409499999999866e+02
5.180000000000000000e+02,2.350971700000000055e+02
5.190000000000000000e+02,2.352529900000000112e+02
5.200000000000000000e+02,2.354084300000000098e+02
5.210000000000000000e+02,2.355635699999999986e+02
5.220000000000000000e+02,2.357182899999999961e+02
5.230000000000000000e+02,2.358726800000000026e+02
5.240000000000000000e+02,2.360267499999999927e+02
5.250000000000000000e+02,2.361804400000000044e+02
5.260000000000000000e+02,2.363337600000000123e+02
5.270000000000000000e+02,2.364867199999999912e+02
5.280000000000000000e+02,2.366393300000000011e+02
5.290000000000000000e+02,2.367915800000000104e+02
5.300000000000000000e+02,2.369435400000000129e+02
5.310000000000000000e+02,2.370951100000000054e+02
5.320000000000000000e+02,2.372463099999999940e+02
5.330000000000000000e+02,2.373971400000000074e+02
5.340000000000000000e+02,2.375476999999999919e+02
5.350000000000000000e+02,2.376978300000000104e+02
5.360000000000000000e+02,2.378476699999999937e+02
5.370000000000000000e+02,2.379971799999999860e+02
5.380000000000000000e+02,2.381462099999999964e+02
5.390000000000000000e+02,2.382950600000000065e+02
5.400000000000000000e+02,2.384435100000000034e+02
5.410000000000000000e+02,2.385915099999999995e+02
5.420000000000000000e+02,2.387393299999999954e+02
5.430000000000000000e+02,2.388867199999999968e+02
5.440000000000000000e+02,2.390337700000000041e+02
5.450000000000000000e+02,2.391805099999999982e+02
5.460000000000000000e+02,2.393267999999999915e+02
5.470000000000000000e+02,2.394728900000000067e+02
5.480000000000000000e+02,2.396186199999999928e+02
5.490000000000000000e+02,2.397639000000000067e+02
5.500000000000000000e+02,2.399089500000000044e+02
5.510000000000000000e+02,2.400535700000000077e+02
5.520000000000000000e+02,2.401979499999999916e+02
5.530000000000000000e+02,2.403419499999999971e+02
5.540000000000000000e+02,2.404855499999999893e+02
5.550000000000000000e+02,2.406289099999999905e+02
5.560000000000000000e+02,2.407718999999999880e+02
5.570000000000000000e+02,2.409145100000000070e+02
5.580000000000000000e+02,2.410568499999999972e+02
5.590000000000000000e+02,2.411987599999999929e+02
5.600000000000000000e+02,2.413404199999999946e+02
5.610000000000000000e+02,2.414817999999999927e+02
5.620000000000000000e+02,2.416226800000000026e+02
5.630000000000000000e+02,2.417633999999999901e+02
5.640000000000000000e+02,2.419037199999999928e+02
5.650000000000000000e+02,2.420436200000000042e+02
5.660000000000000000e+02,2.421833499999999901e+02
5.670000000000000000e+02,2.423226799999999912e+02
5.680000000000000000e+02,2.424615799999999979e+02
5.690000000000000000e+02,2.426003100000000074e+02
5.700000000000000000e+02,2.427385999999999910e+02
5.710000000000000000e+02,2.428765600000000120e+02
5.720000000000000000e+02,2.430143099999999947e+02
5.730000000000000000e+02,2.431516100000000051e+02
5.740000000000000000e+02,2.432885899999999992e+02
5.750000000000000000e+02,2.434253699999999867e+02
5.760000000000000000e+02,2.435616899999999987e+02
5.770000000000000000e+02,2.436976899999999944e+02
5.780000000000000000e+02,2.438335099999999898e+02
5.790000000000000000e+02,2.439688700000000097e+02
5.800000000000000000e+02,2.441039100000000133e+02
5.810000000000000000e+02,2.442387500000000102e+02
5.820000000000000000e+02,2.443731400000000065e+02
5.830000000000000000e+02,2.445072199999999896e+02
5.840000000000000000e+02,2.446410199999999975e+02
5.850000000000000000e+02,2.447744600000000048e+02
5.860000000000000000e+02,2.449076499999999896e+02
5.870000000000000000e+02,2.450404499999999928e+02
5.880000000000000000e+02,2.451729300000000080e+02
5.890000000000000000e+02,2.453051800000000071e+02
5.900000000000000000e+02,2.454370399999999961e+02
5.910000000000000000e+02,2.455685699999999940e+02
5.920000000000000000e+02,2.456998700000000042e+02
5.930000000000000000e+02,2.458308000000000106e+02
5.940000000000000000e+02,2.459613799999999912e+02
5.950000000000000000e+02,2.460917200000000093e+02
5.960000000000000000e+02,2.462216899999999953e+02
5.970000000000000000e+02,2.463513599999999997e+02
5.980000000000000000e+02,2.464807000000000130e+02
5.990000000000000000e+02,2.466097599999999943e+02