# Time [s], Convective Heat Transfer Coefficient [W/m2K]
1.000000000000000000e+00,0.000000000000000000e+00
2.000000000000000000e+00,0.000000000000000000e+00
3.000000000000000000e+00,0.000000000000000000e+00
4.000000000000000000e+00,0.000000000000000000e+00
5.000000000000000000e+00,0.000000000000000000e+00
6.000000000000000000e+00,0.000000000000000000e+00
7.000000000000000000e+00,2.412849599104084641e-02
8.000000000000000000e+00,3.380449737731881787e-02
9.000000000000000000e+00,4.924209937913938406e-02
1.000000000000000000e+01,6.861823301886887938e-02
1.100000000000000000e+01,9.091764525171702749e-02
1.200000000000000000e+01,1.168231392200433927e-01
1.300000000000000000e+01,1.460443615741935930e-01
1.400000000000000000e+01,1.780760864806146260e-01
1.500000000000000000e+01,2.126706697140571811e-01
1.600000000000000000e+01,2.493940307169738857e-01
1.700000000000000000e+01,2.879413090279433485e-01
1.800000000000000000e+01,3.279754318302420257e-01
1.900000000000000000e+01,3.692148734102592145e-01
2.000000000000000000e+01,4.114122247267877341e-01
2.100000000000000000e+01,4.543331738995083913e-01
2.200000000000000000e+01,4.977791106748191141e-01
2.300000000000000000e+01,5.415952580954698226e-01
2.400000000000000000e+01,5.856350730981578767e-01
2.500000000000000000e+01,6.297675470492930527e-01
2.600000000000000000e+01,6.738932081681084929e-01
2.700000000000000000e+01,7.179262508495728445e-01
2.800000000000000000e+01,7.617934179676156825e-01
2.900000000000000000e+01,8.054268050603344831e-01
3.000000000000000000e+01,8.487793471333534567e-01
3.100000000000000000e+01,8.918060059000992856e-01
3.200000000000000000e+01,9.344685012252906819e-01
3.300000000000000000e+01,9.767411081664837402e-01
3.400000000000000000e+01,1.018599738056195747e+00
3.500000000000000000e+01,1.060023853608216937e+00
3.600000000000000000e+01,1.100999373901055511e+00
3.700000000000000000e+01,1.141516630303355484e+00
3.800000000000000000e+01,1.181566437509500078e+00
3.900000000000000000e+01,1.221139910170290888e+00
4.000000000000000000e+01,1.260236432594982192e+00
4.100000000000000000e+01,1.298854239669004151e+00
4.200000000000000000e+01,1.336992561654045231e+00
4.300000000000000000e+01,1.374653708534246954e+00
4.400000000000000000e+01,1.411838032884159766e+00
4.500000000000000000e+01,1.448550975207544722e+00
4.600000000000000000e+01,1.484795348250140368e+00
4.700000000000000000e+01,1.520574849236862924e+00
4.800000000000000000e+01,1.555895682972478156e+00
4.900000000000000000e+01,1.590764059865733104e+00
5.000000000000000000e+01,1.625185642564884514e+00
5.100000000000000000e+01,1.659166832985112805e+00
5.200000000000000000e+01,1.692712903384387291e+00
5.300000000000000000e+01,1.725832843056468002e+00
5.400000000000000000e+01,1.758531785399367831e+00
5.500000000000000000e+01,1.790817460833416863e+00
5.600000000000000000e+01,1.822696513154302700e+00
5.700000000000000000e+01,1.854175642479706232e+00
5.800000000000000000e+01,1.885262529566171796e+00
5.900000000000000000e+01,1.915964035464936543e+00
6.000000000000000000e+01,1.946287826466043258e+00
6.100000000000000000e+01,1.976239213643288695e+00
6.200000000000000000e+01,2.005825531892747371e+00
6.300000000000000000e+01,2.035053838696831541e+00
6.400000000000000000e+01,2.063931744472810692e+00
6.500000000000000000e+01,2.092464367115491886e+00
6.600000000000000000e+01,2.120658538295072670e+00
6.700000000000000000e+01,2.148521544261858374e+00
6.800000000000000000e+01,2.176058079512360077e+00
6.900000000000000000e+01,2.203275125871007045e+00
7.000000000000000000e+01,2.230178364681569825e+00
7.100000000000000000e+01,2.256774380405785596e+00
7.200000000000000000e+01,2.283068969415556815e+00
7.300000000000000000e+01,2.309066774664750632e+00
7.400000000000000000e+01,2.334773975712500782e+00
7.500000000000000000e+01,2.360196010547371159e+00
7.600000000000000000e+01,2.385337642275109360e+00
7.700000000000000000e+01,2.410205033346978887e+00
7.800000000000000000e+01,2.434803225975170626e+00
7.900000000000000000e+01,2.459136437584025003e+00
8.000000000000000000e+01,2.483209841076110092e+00
8.100000000000000000e+01,2.507028722155252076e+00
8.200000000000000000e+01,2.530597182747547080e+00
8.300000000000000000e+01,2.553919857892868350e+00
8.400000000000000000e+01,2.577000981151912118e+00
8.500000000000000000e+01,2.599845453737683609e+00
8.600000000000000000e+01,2.622456910082205273e+00
8.700000000000000000e+01,2.644840330560404240e+00
8.800000000000000000e+01,2.666998963624082286e+00
8.900000000000000000e+01,2.688936729694820560e+00
9.000000000000000000e+01,2.710658482559892946e+00
9.100000000000000000e+01,2.732167110340353755e+00
9.200000000000000000e+01,2.753466309200511386e+00
9.300000000000000000e+01,2.774560367184648157e+00
9.400000000000000000e+01,2.795452020548271577e+00
9.500000000000000000e+01,2.816145517424267997e+00
9.600000000000000000e+01,2.836643597082669110e+00
9.700000000000000000e+01,2.856950033252402488e+00
9.800000000000000000e+01,2.877067863058738073e+00
9.900000000000000000e+01,2.897000412427272575e+00
1.000000000000000000e+02,2.916750724659985305e+00
1.010000000000000000e+02,2.936321577895142365e+00
1.020000000000000000e+02,2.955716171143820681e+00
1.030000000000000000e+02,2.974937170073899573e+00
1.040000000000000000e+02,2.993987784564442478e+00
1.050000000000000000e+02,3.012870315110705910e+00
1.060000000000000000e+02,3.031587481715981358e+00
1.070000000000000000e+02,3.050142271643606406e+00
1.080000000000000000e+02,3.068536928105331629e+00
1.090000000000000000e+02,3.086774713485941568e+00
1.100000000000000000e+02,3.104857299370180179e+00
1.110000000000000000e+02,3.122788098312778704e+00
1.120000000000000000e+02,3.140568248176466515e+00
1.130000000000000000e+02,3.158200259446510394e+00
1.140000000000000000e+02,3.175687358650729042e+00
1.150000000000000000e+02,3.193031152874164835e+00
1.160000000000000000e+02,3.210233533618747082e+00
1.170000000000000000e+02,3.227297335609582429e+00
1.180000000000000000e+02,3.244224618977164187e+00
1.190000000000000000e+02,3.261016929097454664e+00
1.200000000000000000e+02,3.277676303066731300e+00
1.210000000000000000e+02,3.294205028952538861e+00
1.220000000000000000e+02,3.310604565111739728e+00
1.230000000000000000e+02,3.326877907351256436e+00
1.240000000000000000e+02,3.343025638987269677e+00
1.250000000000000000e+02,3.359050403171301991e+00
1.260000000000000000e+02,3.374953619632865554e+00
1.270000000000000000e+02,3.390737068832414103e+00
1.280000000000000000e+02,3.406402572537995610e+00
1.290000000000000000e+02,3.421951691941710560e+00
1.300000000000000000e+02,3.437386135548409882e+00
1.310000000000000000e+02,3.452707457945283220e+00
1.320000000000000000e+02,3.467917358478073364e+00
1.330000000000000000e+02,3.483017578407352044e+00
1.340000000000000000e+02,3.498009038066315135e+00
1.350000000000000000e+02,3.512893389307734093e+00
1.360000000000000000e+02,3.527672796593939175e+00
1.370000000000000000e+02,3.542348236610757262e+00
1.380000000000000000e+02,3.556921119892301864e+00
1.390000000000000000e+02,3.571392630698190018e+00
1.400000000000000000e+02,3.585764191253312916e+00
1.410000000000000000e+02,3.600037271620700974e+00
1.420000000000000000e+02,3.614213477442504541e+00
1.430000000000000000e+02,3.628293210891297971e+00
1.440000000000000000e+02,3.642279069950506543e+00
1.450000000000000000e+02,3.656171298860601215e+00
1.460000000000000000e+02,3.669971353262226899e+00
1.470000000000000000e+02,3.683680215909024280e+00
1.480000000000000000e+02,3.697299270437474306e+00
1.490000000000000000e+02,3.710830116719831651e+00
1.500000000000000000e+02,3.724273212774801500e+00
1.510000000000000000e+02,3.737629926676095504e+00
1.520000000000000000e+02,3.750901339446417904e+00
1.530000000000000000e+02,3.764088668266289073e+00
1.540000000000000000e+02,3.777192687431779383e+00
1.550000000000000000e+02,3.790214721419022936e+00
1.560000000000000000e+02,3.803155735905477286e+00
1.570000000000000000e+02,3.816016510691293107e+00
1.580000000000000000e+02,3.828797965311570017e+00
1.590000000000000000e+02,3.841501551025918726e+00
1.600000000000000000e+02,3.854128051353337803e+00
1.610000000000000000e+02,3.866678308474712278e+00
1.620000000000000000e+02,3.879153221342559910e+00
1.630000000000000000e+02,3.891553434693701963e+00
1.640000000000000000e+02,3.903880422421373453e+00
1.650000000000000000e+02,3.916134400744778254e+00
1.660000000000000000e+02,3.928317022276558212e+00
1.670000000000000000e+02,3.940428391584826606e+00
1.680000000000000000e+02,3.952469735092051906e+00
1.690000000000000000e+02,3.964441803050084534e+00
1.700000000000000000e+02,3.976345402113998784e+00
1.710000000000000000e+02,3.988181540879395026e+00
1.720000000000000000e+02,3.999950399672954404e+00
1.730000000000000000e+02,4.011653100457144738e+00
1.740000000000000000e+02,4.023290739430433582e+00
1.750000000000000000e+02,4.034863596904272320e+00
1.760000000000000000e+02,4.046372661956213257e+00
1.770000000000000000e+02,4.057818190570197991e+00
1.780000000000000000e+02,4.069201422869032747e+00
1.790000000000000000e+02,4.080522938820430490e+00
1.800000000000000000e+02,4.091783375654370225e+00
1.810000000000000000e+02,4.102983148165948890e+00
1.820000000000000000e+02,4.114123492147802708e+00
1.830000000000000000e+02,4.125204309897277710e+00
1.840000000000000000e+02,4.136226942720767852e+00
1.850000000000000000e+02,4.147191682645705590e+00
1.860000000000000000e+02,4.158099289534933796e+00
1.870000000000000000e+02,4.168950170668517252e+00
1.880000000000000000e+02,4.179745193944333082e+00
1.890000000000000000e+02,4.190484676147725907e+00
1.900000000000000000e+02,4.201169657158250637e+00
1.910000000000000000e+02,4.211800099995003599e+00
1.920000000000000000e+02,4.222377084590713814e+00
1.930000000000000000e+02,4.232900885341481789e+00
1.940000000000000000e+02,4.243372096233606783e+00
1.950000000000000000e+02,4.253791428931807062e+00
1.960000000000000000e+02,4.264159452432276787e+00
1.970000000000000000e+02,4.274476340269226071e+00
1.980000000000000000e+02,4.284742645143607476e+00
1.990000000000000000e+02,4.294959289892318566e+00
2.000000000000000000e+02,4.305126611390365454e+00
2.010000000000000000e+02,4.315245128703137922e+00
2.020000000000000000e+02,4.325315038280150404e+00
2.030000000000000000e+02,4.335337031093591698e+00
2.040000000000000000e+02,4.345311785312435227e+00
2.050000000000000000e+02,4.355239287778332802e+00
2.060000000000000000e+02,4.365120508426490353e+00
2.070000000000000000e+02,4.374955604556543420e+00
2.080000000000000000e+02,4.384745095870120402e+00
2.090000000000000000e+02,4.394489613961753527e+00
2.100000000000000000e+02,4.404189296380819130e+00
2.110000000000000000e+02,4.413844578584767753e+00
2.120000000000000000e+02,4.423456247283505505e+00
2.130000000000000000e+02,4.433024479802665674e+00
2.140000000000000000e+02,4.442549568935144855e+00
2.150000000000000000e+02,4.452031920475207905e+00
2.160000000000000000e+02,4.461472286074003257e+00
2.170000000000000000e+02,4.470870877542322042e+00
2.180000000000000000e+02,4.480227844713052576e+00
2.190000000000000000e+02,4.489543915570519239e+00
2.200000000000000000e+02,4.498819285413932612e+00
2.210000000000000000e+02,4.508054376619681669e+00
2.220000000000000000e+02,4.517249834019785304e+00
2.230000000000000000e+02,4.526405549128437400e+00
2.240000000000000000e+02,4.535522041040945140e+00
2.250000000000000000e+02,4.544599820416876490e+00
2.260000000000000000e+02,4.553638938044630713e+00
2.270000000000000000e+02,4.562640174785244085e+00
2.280000000000000000e+02,4.571603626985822011e+00
2.290000000000000000e+02,4.580529556747113595e+00
2.300000000000000000e+02,4.589418277552871572e+00
2.310000000000000000e+02,4.598270374739090727e+00
2.320000000000000000e+02,4.607085983337970703e+00
2.330000000000000000e+02,4.615865510911130620e+00
2.340000000000000000e+02,4.624609194522583344e+00
2.350000000000000000e+02,4.633317322072914912e+00
2.360000000000000000e+02,4.641990285679495010e+00
2.370000000000000000e+02,4.650628309133131744e+00
2.380000000000000000e+02,4.659231666715598408e+00
2.390000000000000000e+02,4.667801112085431470e+00
2.400000000000000000e+02,4.676336156580833681e+00
2.410000000000000000e+02,4.684837705252210327e+00
2.420000000000000000e+02,4.693305693364542286e+00
2.430000000000000000e+02,4.701740586525398058e+00
2.440000000000000000e+02,4.710142738042206290e+00
2.450000000000000000e+02,4.718512180625321406e+00
2.460000000000000000e+02,4.726849260757390425e+00
2.470000000000000000e+02,4.735154424351574853e+00
2.480000000000000000e+02,4.743427590714254016e+00
2.490000000000000000e+02,4.751669457847573774e+00
2.500000000000000000e+02,4.759880042322145677e+00
2.510000000000000000e+02,4.768059617822783203e+00
2.520000000000000000e+02,4.776208351552440945e+00
2.530000000000000000e+02,4.784326408328135827e+00
2.540000000000000000e+02,4.792414256433096043e+00
2.550000000000000000e+02,4.800472256149568295e+00
2.560000000000000000e+02,4.808500357815196580e+00
2.570000000000000000e+02,4.816499067378671839e+00
2.580000000000000000e+02,4.824468179883258045e+00
2.590000000000000000e+02,4.832408445393911123e+00
2.600000000000000000e+02,4.840319804621586286e+00
2.610000000000000000e+02,4.848202497759302787e+00
2.620000000000000000e+02,4.856056861065388475e+00
2.630000000000000000e+02,4.863882879992395658e+00
2.640000000000000000e+02,4.871680934660369999e+00
2.650000000000000000e+02,4.879451301905321614e+00
2.660000000000000000e+02,4.887194205941072234e+00
2.670000000000000000e+02,4.894909672629020214e+00
2.680000000000000000e+02,4.902598117030462888e+00
2.690000000000000000e+02,4.910259511961556633e+00
2.700000000000000000e+02,4.917894362884563719e+00
2.710000000000000000e+02,4.925502589899898531e+00
2.720000000000000000e+02,4.933084450716813230e+00
2.730000000000000000e+02,4.940640199791001663e+00
2.740000000000000000e+02,4.948170136192961088e+00
2.750000000000000000e+02,4.955674316948549318e+00
2.760000000000000000e+02,4.963152940870062757e+00
2.770000000000000000e+02,4.970606204290479724e+00
2.780000000000000000e+02,4.978034301105836335e+00
2.790000000000000000e+02,4.985437422816704434e+00
2.800000000000000000e+02,4.992815570732923369e+00
2.810000000000000000e+02,5.000169261087778594e+00
2.820000000000000000e+02,5.007498397086139974e+00
2.830000000000000000e+02,5.014803488100376683e+00
2.840000000000000000e+02,5.022084341308755917e+00
2.850000000000000000e+02,5.029341321384981356e+00
2.860000000000000000e+02,5.036574234965846664e+00
2.870000000000000000e+02,5.043783995165513012e+00
2.880000000000000000e+02,5.050970036333801261e+00
2.890000000000000000e+02,5.058132897248688309e+00
2.900000000000000000e+02,5.065272608647608976e+00
2.910000000000000000e+02,5.072389428328173189e+00
2.920000000000000000e+02,5.079483384274737112e+00
2.930000000000000000e+02,5.086554820789053188e+00
2.940000000000000000e+02,5.093603942923337513e+00
2.950000000000000000e+02,5.100630458452211968e+00
2.960000000000000000e+02,5.107634796221870666e+00
2.970000000000000000e+02,5.114617246063876799e+00
2.980000000000000000e+02,5.121577960700044230e+00
2.990000000000000000e+02,5.128516913099612218e+00
3.000000000000000000e+02,5.135434076450117402e+00
3.010000000000000000e+02,5.142329955365166683e+00
3.020000000000000000e+02,5.149204519193066432e+00
3.030000000000000000e+02,5.156057781570077658e+00
3.040000000000000000e+02,5.162890195074699484e+00
3.050000000000000000e+02,5.169701857037271253e+00
3.060000000000000000e+02,5.176492645271361326e+00
3.070000000000000000e+02,5.183263005228226916e+00
3.080000000000000000e+02,5.190012725778397673e+00
3.090000000000000000e+02,5.196741988024740522e+00
3.100000000000000000e+02,5.203451533172364307e+00
3.110000000000000000e+02,5.210140542312070799e+00
3.120000000000000000e+02,5.216809796328988114e+00
3.130000000000000000e+02,5.223459381624438791e+00
3.140000000000000000e+02,5.230088870123865696e+00
3.150000000000000000e+02,5.236698947868534404e+00
3.160000000000000000e+02,5.243289825553316241e+00
3.170000000000000000e+02,5.249861202026096407e+00
3.180000000000000000e+02,5.256413626422841823e+00
3.190000000000000000e+02,5.262946839380146180e+00
3.200000000000000000e+02,5.269461005617937843e+00
3.210000000000000000e+02,5.275956498438571174e+00
3.220000000000000000e+02,5.282432848402241810e+00
3.230000000000000000e+02,5.288891138990260643e+00
3.240000000000000000e+02,5.295330814952545317e+00
3.250000000000000000e+02,5.301751992700360461e+00
3.260000000000000000e+02,5.308154829004767983e+00
3.270000000000000000e+02,5.314539396177655028e+00
3.280000000000000000e+02,5.320906427321873799e+00
3.290000000000000000e+02,5.327255163567338414e+00
3.300000000000000000e+02,5.333585923102567072e+00
3.310000000000000000e+02,5.339899226307196933e+00
3.320000000000000000e+02,5.346194810433021694e+00
3.330000000000000000e+02,5.352473109769229076e+00
3.340000000000000000e+02,5.358733902253717929e+00
3.350000000000000000e+02,5.364977008510432022e+00
3.360000000000000000e+02,5.371203427464999791e+00
3.370000000000000000e+02,5.377412691403521627e+00
3.380000000000000000e+02,5.383604579204993357e+00
3.390000000000000000e+02,5.389779758242854157e+00
3.400000000000000000e+02,5.395938407284784688e+00
3.410000000000000000e+02,5.402079941274250174e+00
3.420000000000000000e+02,5.408205101146093874e+00
3.430000000000000000e+02,5.414313702651947224e+00
3.440000000000000000e+02,5.420405802207924673e+00
3.450000000000000000e+02,5.426481495427017521e+00
3.460000000000000000e+02,5.432541194334902457e+00
3.470000000000000000e+02,5.438584674020798815e+00
3.480000000000000000e+02,5.444612066921133753e+00
3.490000000000000000e+02,5.450623425450408455e+00
3.500000000000000000e+02,5.456618880144374018e+00
3.510000000000000000e+02,5.462598756493587615e+00
3.520000000000000000e+02,5.468562907376472992e+00
3.530000000000000000e+02,5.474511108789110736e+00
3.540000000000000000e+02,5.480444307847388785e+00
3.550000000000000000e+02,5.486361732275660152e+00
3.560000000000000000e+02,5.492263741792687171e+00
3.570000000000000000e+02,5.498150731709268157e+00
3.580000000000000000e+02,5.504022475660879543e+00
3.590000000000000000e+02,5.509879096197648707e+00
3.600000000000000000e+02,5.515720637831774020e+00
3.610000000000000000e+02,5.521547183051703556e+00
3.620000000000000000e+02,5.527358851923169780e+00
3.630000000000000000e+02,5.533155686991375610e+00
3.640000000000000000e+02,5.538938073802206041e+00
3.650000000000000000e+02,5.544705823509751497e+00
3.660000000000000000e+02,5.550458976779022890e+00
3.670000000000000000e+02,5.556197611815889559e+00
3.680000000000000000e+02,5.561921806140234459e+00
3.690000000000000000e+02,5.567631674357393479e+00
3.700000000000000000e+02,5.573327254722479474e+00
3.710000000000000000e+02,5.579008923622290617e+00
3.720000000000000000e+02,5.584676191089062769e+00
3.730000000000000000e+02,5.590329657338929614e+00
3.740000000000000000e+02,5.595969207454441374e+00
3.750000000000000000e+02,5.601594802018934338e+00
3.760000000000000000e+02,5.607206588052886076e+00
3.770000000000000000e+02,5.612804599891046742e+00
3.780000000000000000e+02,5.618388908640918444e+00
3.790000000000000000e+02,5.623959621818695354e+00
3.800000000000000000e+02,5.629516772178642547e+00
3.810000000000000000e+02,5.635060723963547957e+00
3.820000000000000000e+02,5.640591249841568455e+00
3.830000000000000000e+02,5.646108160945425780e+00
3.840000000000000000e+02,5.651612076124464146e+00
3.850000000000000000e+02,5.657102512040586895e+00
3.860000000000000000e+02,5.662580084284315696e+00
3.870000000000000000e+02,5.668044565608503227e+00
3.880000000000000000e+02,5.673496021417255619e+00
3.890000000000000000e+02,5.678934552875665176e+00
3.900000000000000000e+02,5.684360187885062921e+00
3.910000000000000000e+02,5.689773026418627033e+00
3.920000000000000000e+02,5.695173059384610603e+00
3.930000000000000000e+02,5.700560421816254220e+00
3.940000000000000000e+02,5.705935427468493693e+00
3.950000000000000000e+02,5.711297598188328273e+00
3.960000000000000000e+02,5.716647247413685129e+00
3.970000000000000000e+02,5.721984721960620135e+00
3.980000000000000000e+02,5.727309545236138888e+00
3.990000000000000000e+02,5.732622312772567064e+00
4.000000000000000000e+02,5.737922513463216134e+00
4.010000000000000000e+02,5.743210775600842588e+00
4.020000000000000000e+02,5.748486660098785173e+00
4.030000000000000000e+02,5.753750685764383199e+00
4.040000000000000000e+02,5.759002379322800458e+00
4.050000000000000000e+02,5.764242398303917270e+00
4.060000000000000000e+02,5.769470481091011571e+00
4.070000000000000000e+02,5.774686438138163069e+00
4.080000000000000000e+02,5.779890852124388800e+00
4.090000000000000000e+02,5.785083497027232013e+00
4.100000000000000000e+02,5.790264148415264600e+00
4.110000000000000000e+02,5.795433454747732860e+00
4.120000000000000000e+02,5.800590911741491773e+00
4.130000000000000000e+02,5.805737060538644911e+00
4.140000000000000000e+02,5.810871745067792027e+00
4.150000000000000000e+02,5.815994983365238902e+00
4.160000000000000000e+02,5.821106827858259614e+00
4.170000000000000000e+02,5.826207089179276544e+00
4.180000000000000000e+02,5.831296336613067233e+00
4.190000000000000000e+02,5.836374104485654080e+00
4.200000000000000000e+02,5.841440959507426811e+00
4.210000000000000000e+02,5.846496402792658920e+00
4.220000000000000000e+02,5.851541067062713708e+00
4.230000000000000000e+02,5.856574420276923654e+00
4.240000000000000000e+02,5.861597058341160071e+00
4.250000000000000000e+02,5.866608756765930188e+00
4.260000000000000000e+02,5.871609360476103490e+00
4.270000000000000000e+02,5.876599359459993899e+00
4.280000000000000000e+02,5.881578292858465673e+00
4.290000000000000000e+02,5.886546547455441036e+00
4.300000000000000000e+02,5.891504338775422234e+00
4.310000000000000000e+02,5.896451207495196023e+00
4.320000000000000000e+02,5.901387537654595228e+00
4.330000000000000000e+02,5.906313542920658577e+00
4.340000000000000000e+02,5.911228799001687406e+00
4.350000000000000000e+02,5.916133586745550232e+00
4.360000000000000000e+02,5.921027951386172106e+00
4.370000000000000000e+02,5.925911971169354864e+00
4.380000000000000000e+02,5.930785657241735009e+00
4.390000000000000000e+02,5.935649087104017063e+00
4.400000000000000000e+02,5.940502006012676084e+00
4.410000000000000000e+02,5.945344988793139329e+00
4.420000000000000000e+02,5.950177846048054775e+00
4.430000000000000000e+02,5.955000554636219690e+00
4.440000000000000000e+02,5.959812992672325116e+00
4.450000000000000000e+02,5.964615631298266329e+00
4.460000000000000000e+02,5.969408084482457966e+00
4.470000000000000000e+02,5.974190559013584867e+00
4.480000000000000000e+02,5.978963162096933459e+00
4.490000000000000000e+02,5.983725902150511367e+00
4.500000000000000000e+02,5.988478852800464658e+00
4.510000000000000000e+02,5.993222022003666716e+00
4.520000000000000000e+02,5.997955450183586557e+00
4.530000000000000000e+02,6.002679209974690622e+00
4.540000000000000000e+02,6.007393049165901111e+00
4.550000000000000000e+02,6.012097526752975263e+00
4.560000000000000000e+02,6.016792454502353671e+00
4.570000000000000000e+02,6.021477580762638837e+00
4.580000000000000000e+02,6.026153203419493565e+00
4.590000000000000000e+02,6.030819393194206235e+00
4.600000000000000000e+02,6.035476188214763837e+00
4.610000000000000000e+02,6.040123337578192420e+00
4.620000000000000000e+02,6.044761392824093527e+00
4.630000000000000000e+02,6.049389878479201954e+00
4.640000000000000000e+02,6.054009120432362501e+00
4.650000000000000000e+02,6.058619378784705134e+00
4.660000000000000000e+02,6.063220211510807367e+00
4.670000000000000000e+02,6.067811878710855034e+00
4.680000000000000000e+02,6.072394416670278794e+00
4.690000000000000000e+02,6.076967639548043643e+00
4.700000000000000000e+02,6.081532058914199901e+00
4.710000000000000000e+02,6.086087235153838648e+00
4.720000000000000000e+02,6.090633425495445508e+00
4.730000000000000000e+02,6.095170665049539416e+00
4.740000000000000000e+02,6.099698768461427889e+00
4.750000000000000000e+02,6.104218274019987511e+00
4.760000000000000000e+02,6.108728650250361270e+00
4.770000000000000000e+02,6.113230245844737176e+00
4.780000000000000000e+02,6.117723094651891458e+00
4.790000000000000000e+02,6.122207199072202677e+00
4.800000000000000000e+02,6.126682592659476789e+00
4.810000000000000000e+02,6.131149059629244391e+00
4.820000000000000000e+02,6.135606945147228153e+00
4.830000000000000000e+02,6.140056188704855700e+00
4.840000000000000000e+02,6.144496885152386234e+00
4.850000000000000000e+02,6.148928788207229879e+00
4.860000000000000000e+02,6.153352209476216750e+00
4.870000000000000000e+02,6.157767150040180937e+00
4.880000000000000000e+02,6.162173672611643838e+00
4.890000000000000000e+02,6.166571531689830188e+00
4.900000000000000000e+02,6.170961036473141093e+00
4.910000000000000000e+02,6.175342187421565932e+00
4.920000000000000000e+02,6.179715015628281627e+00
4.930000000000000000e+02,6.184079551993578505e+00
4.940000000000000000e+02,6.188435643826642796e+00
4.950000000000000000e+02,6.192783475037900942e+00
4.960000000000000000e+02,6.197123137045901231e+00
4.970000000000000000e+02,6.201454416356870780e+00
4.980000000000000000e+02,6.205777556590541977e+00
4.990000000000000000e+02,6.210092587517253904e+00
5.000000000000000000e+02,6.214399326543320612e+00
5.010000000000000000e+02,6.218698046115916256e+00
5.020000000000000000e+02,6.222988714879922334e+00
5.030000000000000000e+02,6.227271211076816471e+00
5.040000000000000000e+02,6.231545745196418906e+00
5.050000000000000000e+02,6.235812345935143775e+00
5.060000000000000000e+02,6.240070801313687632e+00
5.070000000000000000e+02,6.244321651039632215e+00
5.080000000000000000e+02,6.248564442491996829e+00
5.090000000000000000e+02,6.252799384181386699e+00
5.100000000000000000e+02,6.257026354572330362e+00
5.110000000000000000e+02,6.261245322347983588e+00
5.120000000000000000e+02,6.265456793098103994e+00
5.130000000000000000e+02,6.269660346510594451e+00
5.140000000000000000e+02,6.273856010607635092e+00
5.150000000000000000e+02,6.278044021146696352e+00
5.160000000000000000e+02,6.282224404987969635e+00
5.170000000000000000e+02,6.286396981483970414e+00
5.180000000000000000e+02,6.290561985079626162e+00
5.190000000000000000e+02,6.294719471705767511e+00
5.200000000000000000e+02,6.298868995411671001e+00
5.210000000000000000e+02,6.303011232263612484e+00
5.220000000000000000e+02,6.307145824824986313e+00
5.230000000000000000e+02,6.311272946506474746e+00
5.240000000000000000e+02,6.315392476297455815e+00
5.250000000000000000e+02,6.319504586920921874e+00
5.260000000000000000e+02,6.323609157448988327e+00
5.270000000000000000e+02,6.327706593812065350e+00
5.280000000000000000e+02,6.331796307090027831e+00
5.290000000000000000e+02,6.335878936128466421e+00
5.300000000000000000e+02,6.339953893301877308e+00
5.310000000000000000e+02,6.344021611986927489e+00
5.320000000000000000e+02,6.348082116646123652e+00
5.330000000000000000e+02,6.352134996430911507e+00
5.340000000000000000e+02,6.356180943604047506e+00
5.350000000000000000e+02,6.360219547259423400e+00
5.360000000000000000e+02,6.364250832077989806e+00
5.370000000000000000e+02,6.368274793735986705e+00
5.380000000000000000e+02,6.372291716198628997e+00
5.390000000000000000e+02,6.376301594067571799e+00
5.400000000000000000e+02,6.380304019376055180e+00
5.410000000000000000e+02,6.384299677542301765e+00
5.420000000000000000e+02,6.388287959762805279e+00
5.430000000000000000e+02,6.392269262947124275e+00
5.440000000000000000e+02,6.396243667275777867e+00
5.450000000000000000e+02,6.400210738127440457e+00
5.460000000000000000e+02,6.404170927818015002e+00
5.470000000000000000e+02,6.408124287320819512e+00
5.480000000000000000e+02,6.412070497213774090e+00
5.490000000000000000e+02,6.416009978985439233e+00
5.500000000000000000e+02,6.419942072772424346e+00
5.510000000000000000e+02,6.423867653752595608e+00
5.520000000000000000e+02,6.427786176188549305e+00
5.530000000000000000e+02,6.431698228913523607e+00
5.540000000000000000e+02,6.435602702058492497e+00
5.550000000000000000e+02,6.439501031783413154e+00
5.560000000000000000e+02,6.443392391649270579e+00
5.570000000000000000e+02,6.447276522422956901e+00
5.580000000000000000e+02,6.451154291211908642e+00
5.590000000000000000e+02,6.455025156247855556e+00
5.600000000000000000e+02,6.458889420156734396e+00
5.610000000000000000e+02,6.462746823567156795e+00
5.620000000000000000e+02,6.466597668201671034e+00
5.630000000000000000e+02,6.470441695129089510e+00
5.640000000000000000e+02,6.474278925905162296e+00
5.650000000000000000e+02,6.478109939852187971e+00
5.660000000000000000e+02,6.481933920483295530e+00
5.670000000000000000e+02,6.485751724852137912e+00
5.680000000000000000e+02,6.489562816182521843e+00
5.690000000000000000e+02,6.493366937836067443e+00
5.700000000000000000e+02,6.497164943590551189e+00
5.710000000000000000e+02,6.500956298304455316e+00
5.720000000000000000e+02,6.504741022641173487e+00
5.730000000000000000e+02,6.508519413495340800e+00
5.740000000000000000e+02,6.512291214331028755e+00
5.750000000000000000e+02,6.516056721190401468e+00
5.760000000000000000e+02,6.519815677968863632e+00
5.770000000000000000e+02,6.523568104796159339e+00
5.780000000000000000e+02,6.527314021696270174e+00
5.790000000000000000e+02,6.531053997462604066e+00
5.800000000000000000e+02,6.534787227657878006e+00
5.810000000000000000e+02,6.538514280559623693e+00
5.820000000000000000e+02,6.542234627845598283e+00
5.830000000000000000e+02,6.545949109528516274e+00
5.840000000000000000e+02,6.549656924520015799e+00
5.850000000000000000e+02,6.553358638203205189e+00
5.860000000000000000e+02,6.557053996602555834e+00
5.870000000000000000e+02,6.560743018832994267e+00
5.880000000000000000e+02,6.564425995564877603e+00
5.890000000000000000e+02,6.568102673454786711e+00
5.900000000000000000e+02,6.571773071327273286e+00
5.910000000000000000e+02,6.575437478655284274e+00
5.920000000000000000e+02,6.579095372280415965e+00
5.930000000000000000e+02,6.582747311930592815e+00
5.940000000000000000e+02,6.586393045306700778e+00
5.950000000000000000e+02,6.590032590760675824e+00
5.960000000000000000e+02,6.593665966551289337e+00
5.970000000000000000e+02,6.597293459798752480e+00
5.980000000000000000e+02,6.600914550374562317e+00