# Time [s], Temperature [C]
1.000000000000000000e+00,2.500000000000000000e+01
2.000000000000000000e+00,2.500000000000000000e+01
3.000000000000000000e+00,2.500000000000000000e+01
4.000000000000000000e+00,2.500000000000000000e+01
5.000000000000000000e+00,2.500000000000000000e+01
6.000000000000000000e+00,2.500000000000000000e+01
7.000000000000000000e+00,2.500000400000000056e+01
8.000000000000000000e+00,2.500001100000000065e+01
9.000000000000000000e+00,2.500003399999999942e+01
1.000000000000000000e+01,2.500009299999999968e+01
1.100000000000000000e+01,2.500021699999999925e+01
1.200000000000000000e+01,2.500046199999999885e+01
1.300000000000000000e+01,2.500090000000000146e+01
1.400000000000000000e+01,2.500163099999999972e+01
1.500000000000000000e+01,2.500277499999999975e+01
1.600000000000000000e+01,2.500447300000000084e+01
1.700000000000000000e+01,2.500687999999999889e+01
1.800000000000000000e+01,2.501015999999999906e+01
1.900000000000000000e+01,2.501448999999999856e+01
2.000000000000000000e+01,2.502003900000000058e+01
2.100000000000000000e+01,2.502697900000000075e+01
2.200000000000000000e+01,2.503547299999999964e+01
2.300000000000000000e+01,2.504567899999999980e+01
2.400000000000000000e+01,2.505773900000000154e+01
2.500000000000000000e+01,2.507178899999999899e+01
2.600000000000000000e+01,2.508794800000000080e+01
2.700000000000000000e+01,2.510632499999999823e+01
2.800000000000000000e+01,2.512701399999999907e+01
2.900000000000000000e+01,2.515009699999999881e+01
3.000000000000000000e+01,2.517564600000000041e+01
3.100000000000000000e+01,2.520371799999999851e+01
3.200000000000000000e+01,2.523435999999999879e+01
3.300000000000000000e+01,2.526760900000000021e+01
3.400000000000000000e+01,2.530349199999999854e+01
3.500000000000000000e+01,2.534203000000000117e+01
3.600000000000000000e+01,2.538322799999999901e+01
3.700000000000000000e+01,2.542709699999999984e+01
3.800000000000000000e+01,2.547362899999999897e+01
3.900000000000000000e+01,2.552281400000000033e+01
4.000000000000000000e+01,2.557463800000000020e+01
4.100000000000000000e+01,2.562908399999999887e+01
4.200000000000000000e+01,2.568612900000000110e+01
4.300000000000000000e+01,2.574574300000000093e+01
4.400000000000000000e+01,2.580789899999999903e+01
4.500000000000000000e+01,2.587256400000000056e+01
4.600000000000000000e+01,2.593969900000000095e+01
4.700000000000000000e+01,2.600926799999999872e+01
4.800000000000000000e+01,2.608123600000000053e+01
4.900000000000000000e+01,2.615555799999999920e+01
5.000000000000000000e+01,2.623219699999999932e+01
5.100000000000000000e+01,2.631110599999999877e+01
5.200000000000000000e+01,2.639224199999999954e+01
5.300000000000000000e+01,2.647556300000000107e+01
5.400000000000000000e+01,2.656102599999999825e+01
5.500000000000000000e+01,2.664858600000000166e+01
5.600000000000000000e+01,2.673819699999999955e+01
5.700000000000000000e+01,2.682981499999999997e+01
5.800000000000000000e+01,2.692339499999999930e+01
5.900000000000000000e+01,2.701889800000000008e+01
6.000000000000000000e+01,2.711627599999999916e+01
6.100000000000000000e+01,2.721548500000000104e+01
6.200000000000000000e+01,2.731648399999999910e+01
6.300000000000000000e+01,2.741923299999999841e+01
6.400000000000000000e+01,2.752368500000000040e+01
6.500000000000000000e+01,2.762980100000000050e+01
6.600000000000000000e+01,2.773754100000000022e+01
6.700000000000000000e+01,2.784686699999999959e+01
6.800000000000000000e+01,2.795773499999999956e+01
6.900000000000000000e+01,2.807010999999999967e+01
7.000000000000000000e+01,2.818395399999999995e+01
7.100000000000000000e+01,2.829923099999999891e+01
7.200000000000000000e+01,2.841590100000000163e+01
7.300000000000000000e+01,2.853393000000000157e+01
7.400000000000000000e+01,2.865328399999999931e+01
7.500000000000000000e+01,2.877392800000000150e+01
7.600000000000000000e+01,2.889582599999999957e+01
7.700000000000000000e+01,2.901895000000000024e+01
7.800000000000000000e+01,2.914326099999999897e+01
7.900000000000000000e+01,2.926873199999999997e+01
8.000000000000000000e+01,2.939533399999999830e+01
8.100000000000000000e+01,2.952303500000000014e+01
8.200000000000000000e+01,2.965180600000000055e+01
8.300000000000000000e+01,2.978161599999999964e+01
8.400000000000000000e+01,2.991244100000000117e+01
8.500000000000000000e+01,3.004425200000000018e+01
8.600000000000000000e+01,3.017701900000000137e+01
8.700000000000000000e+01,3.031072199999999839e+01
8.800000000000000000e+01,3.044533200000000051e+01
8.900000000000000000e+01,3.058082200000000128e+01
9.000000000000000000e+01,3.071717299999999895e+01
9.100000000000000000e+01,3.085435700000000026e+01
9.200000000000000000e+01,3.099235200000000034e+01
9.300000000000000000e+01,3.113113799999999998e+01
9.400000000000000000e+01,3.127069300000000140e+01
9.500000000000000000e+01,3.141099399999999875e+01
9.600000000000000000e+01,3.155201900000000137e+01
9.700000000000000000e+01,3.169374699999999834e+01
9.800000000000000000e+01,3.183616100000000060e+01
9.900000000000000000e+01,3.197924000000000078e+01
1.000000000000000000e+02,3.212296700000000271e+01
1.010000000000000000e+02,3.226731900000000053e+01
1.020000000000000000e+02,3.241228499999999713e+01
1.030000000000000000e+02,3.255784200000000084e+01
1.040000000000000000e+02,3.270397599999999727e+01
1.050000000000000000e+02,3.285067000000000093e+01
1.060000000000000000e+02,3.299790600000000040e+01
1.070000000000000000e+02,3.314567199999999758e+01
1.080000000000000000e+02,3.329394899999999780e+01
1.090000000000000000e+02,3.344272200000000339e+01
1.100000000000000000e+02,3.359197600000000250e+01
1.110000000000000000e+02,3.374169899999999700e+01
1.120000000000000000e+02,3.389187600000000344e+01
1.130000000000000000e+02,3.404249999999999687e+01
1.140000000000000000e+02,3.419354200000000077e+01
1.150000000000000000e+02,3.434500899999999746e+01
1.160000000000000000e+02,3.449687200000000331e+01
1.170000000000000000e+02,3.464912799999999748e+01
1.180000000000000000e+02,3.480176199999999653e+01
1.190000000000000000e+02,3.495476200000000233e+01
1.200000000000000000e+02,3.510811999999999955e+01
1.210000000000000000e+02,3.526182200000000222e+01
1.220000000000000000e+02,3.541585899999999754e+01
1.230000000000000000e+02,3.557021699999999953e+01
1.240000000000000000e+02,3.572489199999999698e+01
1.250000000000000000e+02,3.587986800000000187e+01
1.260000000000000000e+02,3.603513699999999886e+01
1.270000000000000000e+02,3.619068899999999900e+01
1.280000000000000000e+02,3.634652299999999769e+01
1.290000000000000000e+02,3.650262099999999776e+01
1.300000000000000000e+02,3.665897799999999762e+01
1.310000000000000000e+02,3.681558600000000325e+01
1.320000000000000000e+02,3.697242700000000326e+01
1.330000000000000000e+02,3.712950899999999876e+01
1.340000000000000000e+02,3.728681600000000174e+01
1.350000000000000000e+02,3.744433999999999685e+01
1.360000000000000000e+02,3.760207400000000177e+01
1.370000000000000000e+02,3.776001000000000118e+01
1.380000000000000000e+02,3.791814399999999807e+01
1.390000000000000000e+02,3.807646900000000301e+01
1.400000000000000000e+02,3.823497400000000113e+01
1.410000000000000000e+02,3.839365399999999795e+01
1.420000000000000000e+02,3.855250499999999647e+01
1.430000000000000000e+02,3.871152099999999763e+01
1.440000000000000000e+02,3.887069699999999983e+01
1.450000000000000000e+02,3.903002200000000244e+01
1.460000000000000000e+02,3.918949099999999675e+01
1.470000000000000000e+02,3.934910200000000202e+01
1.480000000000000000e+02,3.950885000000000247e+01
1.490000000000000000e+02,3.966872800000000154e+01
1.500000000000000000e+02,3.982872799999999813e+01
1.510000000000000000e+02,3.998884999999999934e+01
1.520000000000000000e+02,4.014908199999999994e+01
1.530000000000000000e+02,4.030942900000000151e+01
1.540000000000000000e+02,4.046988300000000294e+01
1.550000000000000000e+02,4.063043600000000311e+01
1.560000000000000000e+02,4.079108800000000201e+01
1.570000000000000000e+02,4.095182799999999901e+01
1.580000000000000000e+02,4.111265600000000120e+01
1.590000000000000000e+02,4.127357099999999690e+01
1.600000000000000000e+02,4.143456599999999668e+01
1.610000000000000000e+02,4.159563800000000100e+01
1.620000000000000000e+02,4.175677900000000164e+01
1.630000000000000000e+02,4.191798800000000114e+01
1.640000000000000000e+02,4.207926599999999695e+01
1.650000000000000000e+02,4.224060800000000171e+01
1.660000000000000000e+02,4.240200399999999803e+01
1.670000000000000000e+02,4.256345400000000012e+01
1.680000000000000000e+02,4.272496000000000294e+01
1.690000000000000000e+02,4.288651300000000077e+01
1.700000000000000000e+02,4.304811500000000279e+01
1.710000000000000000e+02,4.320975500000000125e+01
1.720000000000000000e+02,4.337143700000000024e+01
1.730000000000000000e+02,4.353315700000000277e+01
1.740000000000000000e+02,4.369490799999999808e+01
1.750000000000000000e+02,4.385669699999999693e+01
1.760000000000000000e+02,4.401850900000000166e+01
1.770000000000000000e+02,4.418034699999999759e+01
1.780000000000000000e+02,4.434221600000000052e+01
1.790000000000000000e+02,4.450410500000000269e+01
1.800000000000000000e+02,4.466601200000000205e+01
1.810000000000000000e+02,4.482793399999999906e+01
1.820000000000000000e+02,4.498986800000000130e+01
1.830000000000000000e+02,4.515182099999999821e+01
1.840000000000000000e+02,4.531378600000000034e+01
1.850000000000000000e+02,4.547575400000000201e+01
1.860000000000000000e+02,4.563772999999999769e+01
1.870000000000000000e+02,4.579970900000000000e+01
1.880000000000000000e+02,4.596169700000000091e+01
1.890000000000000000e+02,4.612368000000000023e+01
1.900000000000000000e+02,4.628566699999999656e+01
1.910000000000000000e+02,4.644764700000000346e+01
1.920000000000000000e+02,4.660962700000000325e+01
1.930000000000000000e+02,4.677159900000000192e+01
1.940000000000000000e+02,4.693355900000000247e+01
1.950000000000000000e+02,4.709551199999999938e+01
1.960000000000000000e+02,4.725745799999999974e+01
1.970000000000000000e+02,4.741938799999999787e+01
1.980000000000000000e+02,4.758130599999999788e+01
1.990000000000000000e+02,4.774320600000000070e+01
2.000000000000000000e+02,4.790509399999999829e+01
2.010000000000000000e+02,4.806695899999999710e+01
2.020000000000000000e+02,4.822880899999999826e+01
2.030000000000000000e+02,4.839063999999999766e+01
2.040000000000000000e+02,4.855244100000000174e+01
2.050000000000000000e+02,4.871422599999999647e+01
2.060000000000000000e+02,4.887598400000000254e+01
2.070000000000000000e+02,4.903772000000000020e+01
2.080000000000000000e+02,4.919942900000000208e+01
2.090000000000000000e+02,4.936110299999999995e+01
2.100000000000000000e+02,4.952275800000000316e+01
2.110000000000000000e+02,4.968437999999999732e+01
2.120000000000000000e+02,4.984597000000000122e+01
2.130000000000000000e+02,5.000752599999999859e+01
2.140000000000000000e+02,5.016905200000000065e+01
2.150000000000000000e+02,5.033054700000000281e+01
2.160000000000000000e+02,5.049200400000000144e+01
2.170000000000000000e+02,5.065342700000000065e+01
2.180000000000000000e+02,5.081481200000000342e+01
2.190000000000000000e+02,5.097616200000000219e+01
2.200000000000000000e+02,5.113747399999999743e+01
2.210000000000000000e+02,5.129874399999999923e+01
2.220000000000000000e+02,5.145998000000000161e+01
2.230000000000000000e+02,5.162117400000000345e+01
2.240000000000000000e+02,5.178232200000000063e+01
2.250000000000000000e+02,5.194343200000000138e+01
2.260000000000000000e+02,5.210450000000000159e+01
2.270000000000000000e+02,5.226552600000000126e+01
2.280000000000000000e+02,5.242650600000000338e+01
2.290000000000000000e+02,5.258744000000000085e+01
2.300000000000000000e+02,5.274833300000000236e+01
2.310000000000000000e+02,5.290917999999999921e+01
2.320000000000000000e+02,5.306998099999999852e+01
2.330000000000000000e+02,5.323073200000000327e+01
2.340000000000000000e+02,5.339143800000000084e+01
2.350000000000000000e+02,5.355209399999999675e+01
2.360000000000000000e+02,5.371270400000000222e+01
2.370000000000000000e+02,5.387326399999999893e+01
2.380000000000000000e+02,5.403377499999999856e+01
2.390000000000000000e+02,5.419423299999999699e+01
2.400000000000000000e+02,5.435464100000000087e+01
2.410000000000000000e+02,5.451499900000000309e+01
2.420000000000000000e+02,5.467530800000000113e+01
2.430000000000000000e+02,5.483556399999999798e+01
2.440000000000000000e+02,5.499576199999999915e+01
2.450000000000000000e+02,5.515591400000000277e+01
2.460000000000000000e+02,5.531600999999999857e+01
2.470000000000000000e+02,5.547605500000000234e+01
2.480000000000000000e+02,5.563604399999999828e+01
2.490000000000000000e+02,5.579597499999999854e+01
2.500000000000000000e+02,5.595585599999999715e+01
2.510000000000000000e+02,5.611568100000000214e+01
2.520000000000000000e+02,5.627544799999999725e+01
2.530000000000000000e+02,5.643516199999999827e+01
2.540000000000000000e+02,5.659481799999999652e+01
2.550000000000000000e+02,5.675441699999999656e+01
2.560000000000000000e+02,5.691396000000000299e+01
2.570000000000000000e+02,5.707344799999999907e+01
2.580000000000000000e+02,5.723287599999999742e+01
2.590000000000000000e+02,5.739224200000000309e+01
2.600000000000000000e+02,5.755155899999999747e+01
2.610000000000000000e+02,5.771081199999999711e+01
2.620000000000000000e+02,5.787000700000000109e+01
2.630000000000000000e+02,5.802914400000000228e+01
2.640000000000000000e+02,5.818822099999999864e+01
2.650000000000000000e+02,5.834723999999999933e+01
2.660000000000000000e+02,5.850619900000000229e+01
2.670000000000000000e+02,5.866509599999999836e+01
2.680000000000000000e+02,5.882393299999999670e+01
2.690000000000000000e+02,5.898270800000000236e+01
2.700000000000000000e+02,5.914142600000000272e+01
2.710000000000000000e+02,5.930008300000000077e+01
2.720000000000000000e+02,5.945867499999999950e+01
2.730000000000000000e+02,5.961721000000000004e+01
2.740000000000000000e+02,5.977568099999999873e+01
2.750000000000000000e+02,5.993408999999999764e+01
2.760000000000000000e+02,6.009243800000000135e+01
2.770000000000000000e+02,6.025072500000000275e+01
2.780000000000000000e+02,6.040894699999999773e+01
2.790000000000000000e+02,6.056710799999999750e+01
2.800000000000000000e+02,6.072520800000000207e+01
2.810000000000000000e+02,6.088324399999999770e+01
2.820000000000000000e+02,6.104121800000000064e+01
2.830000000000000000e+02,6.119912699999999717e+01
2.840000000000000000e+02,6.135697199999999896e+01
2.850000000000000000e+02,6.151475500000000096e+01
2.860000000000000000e+02,6.167247400000000113e+01
2.870000000000000000e+02,6.183013199999999898e+01
2.880000000000000000e+02,6.198772000000000304e+01
2.890000000000000000e+02,6.214524500000000273e+01
2.900000000000000000e+02,6.230271100000000217e+01
2.910000000000000000e+02,6.246011000000000024e+01
2.920000000000000000e+02,6.261744699999999852e+01
2.930000000000000000e+02,6.277471500000000049e+01
2.940000000000000000e+02,6.293191900000000061e+01
2.950000000000000000e+02,6.308905800000000141e+01
2.960000000000000000e+02,6.324613599999999991e+01
2.970000000000000000e+02,6.340314500000000209e+01
2.980000000000000000e+02,6.356009300000000195e+01
2.990000000000000000e+02,6.371696899999999886e+01
3.000000000000000000e+02,6.387378700000000009e+01
3.010000000000000000e+02,6.403053300000000547e+01
3.020000000000000000e+02,6.418721800000000144e+01
3.030000000000000000e+02,6.434383400000000108e+01
3.040000000000000000e+02,6.450038899999999842e+01
3.050000000000000000e+02,6.465687599999999691e+01
3.060000000000000000e+02,6.481329300000000160e+01
3.070000000000000000e+02,6.496964300000000492e+01
3.080000000000000000e+02,6.512593099999999424e+01
3.090000000000000000e+02,6.528215799999999547e+01
3.100000000000000000e+02,6.543830900000000383e+01
3.110000000000000000e+02,6.559439799999999821e+01
3.120000000000000000e+02,6.575042000000000542e+01
3.130000000000000000e+02,6.590637999999999863e+01
3.140000000000000000e+02,6.606227099999999552e+01
3.150000000000000000e+02,6.621809399999999357e+01
3.160000000000000000e+02,6.637384799999999530e+01
3.170000000000000000e+02,6.652953300000000070e+01
3.180000000000000000e+02,6.668515800000000127e+01
3.190000000000000000e+02,6.684070599999999729e+01
3.200000000000000000e+02,6.699619300000000521e+01
3.210000000000000000e+02,6.715161899999999662e+01
3.220000000000000000e+02,6.730696899999999516e+01
3.230000000000000000e+02,6.746225699999999392e+01
3.240000000000000000e+02,6.761747699999999384e+01
3.250000000000000000e+02,6.777262100000000089e+01
3.260000000000000000e+02,6.792771100000000217e+01
3.270000000000000000e+02,6.808272599999999386e+01
3.280000000000000000e+02,6.823767899999999997e+01
3.290000000000000000e+02,6.839255500000000154e+01
3.300000000000000000e+02,6.854737099999999828e+01
3.310000000000000000e+02,6.870211000000000467e+01
3.320000000000000000e+02,6.885678900000000624e+01
3.330000000000000000e+02,6.901140599999999381e+01
3.340000000000000000e+02,6.916594700000000273e+01
3.350000000000000000e+02,6.932041900000000112e+01
3.360000000000000000e+02,6.947482300000000066e+01
3.370000000000000000e+02,6.962916599999999789e+01
3.380000000000000000e+02,6.978343200000000479e+01
3.390000000000000000e+02,6.993763699999999517e+01
3.400000000000000000e+02,7.009177400000000091e+01
3.410000000000000000e+02,7.024583400000000211e+01
3.420000000000000000e+02,7.039983399999999847e+01
3.430000000000000000e+02,7.055376400000000103e+01
3.440000000000000000e+02,7.070762600000000475e+01
3.450000000000000000e+02,7.086141999999999541e+01
3.460000000000000000e+02,7.101514400000000649e+01
3.470000000000000000e+02,7.116880000000000450e+01
3.480000000000000000e+02,7.132238800000000367e+01
3.490000000000000000e+02,7.147590599999999483e+01
3.500000000000000000e+02,7.162935600000000136e+01
3.510000000000000000e+02,7.178273799999999483e+01
3.520000000000000000e+02,7.193605800000000272e+01
3.530000000000000000e+02,7.208930200000000355e+01
3.540000000000000000e+02,7.224247699999999384e+01
3.550000000000000000e+02,7.239558399999999949e+01
3.560000000000000000e+02,7.254862199999999461e+01
3.570000000000000000e+02,7.270159099999999341e+01
3.580000000000000000e+02,7.285450000000000159e+01
3.590000000000000000e+02,7.300733200000000522e+01
3.600000000000000000e+02,7.316009499999999832e+01
3.610000000000000000e+02,7.331279000000000678e+01
3.620000000000000000e+02,7.346541600000000471e+01
3.630000000000000000e+02,7.361797300000000632e+01
3.640000000000000000e+02,7.377046199999999487e+01
3.650000000000000000e+02,7.392288200000000131e+01
3.660000000000000000e+02,7.407523299999999722e+01
3.670000000000000000e+02,7.422751599999999428e+01
3.680000000000000000e+02,7.437972999999999502e+01
3.690000000000000000e+02,7.453186800000000289e+01
3.700000000000000000e+02,7.468394499999999425e+01
3.710000000000000000e+02,7.483595300000000350e+01
3.720000000000000000e+02,7.498788500000000568e+01
3.730000000000000000e+02,7.513975499999999386e+01
3.740000000000000000e+02,7.529155699999999740e+01
3.750000000000000000e+02,7.544328299999999388e+01
3.760000000000000000e+02,7.559494800000000225e+01
3.770000000000000000e+02,7.574653600000000608e+01
3.780000000000000000e+02,7.589805599999999686e+01
3.790000000000000000e+02,7.604950700000000552e+01
3.800000000000000000e+02,7.620089000000000112e+01
3.810000000000000000e+02,7.635220300000000293e+01
3.820000000000000000e+02,7.650344800000000589e+01
3.830000000000000000e+02,7.665462499999999579e+01
3.840000000000000000e+02,7.680573300000000359e+01
3.850000000000000000e+02,7.695676400000000683e+01
3.860000000000000000e+02,7.710773500000000524e+01
3.870000000000000000e+02,7.725863599999999565e+01
3.880000000000000000e+02,7.740946200000000488e+01
3.890000000000000000e+02,7.756022600000000011e+01
3.900000000000000000e+02,7.771091499999999996e+01
3.910000000000000000e+02,7.786153400000000602e+01
3.920000000000000000e+02,7.801208499999999901e+01
3.930000000000000000e+02,7.816255999999999915e+01
3.940000000000000000e+02,7.831297299999999950e+01
3.950000000000000000e+02,7.846331800000000101e+01
3.960000000000000000e+02,7.861359400000000619e+01
3.970000000000000000e+02,7.876379400000000430e+01
3.980000000000000000e+02,7.891392500000000609e+01
3.990000000000000000e+02,7.906399500000000558e+01
4.000000000000000000e+02,7.921398899999999799e+01
4.010000000000000000e+02,7.936390699999999754e+01
4.020000000000000000e+02,7.951376299999999731e+01
4.030000000000000000e+02,7.966355099999999823e+01
4.040000000000000000e+02,7.981327100000000030e+01
4.050000000000000000e+02,7.996291399999999783e+01
4.060000000000000000e+02,8.011248799999999903e+01
4.070000000000000000e+02,8.026200099999999793e+01
4.080000000000000000e+02,8.041143800000000397e+01
4.090000000000000000e+02,8.056079900000000293e+01
4.100000000000000000e+02,8.071009800000000212e+01
4.110000000000000000e+02,8.085932900000000245e+01
4.120000000000000000e+02,8.100848399999999572e+01
4.130000000000000000e+02,8.115757800000000088e+01
4.140000000000000000e+02,8.130659500000000151e+01
4.150000000000000000e+02,8.145554400000000328e+01
4.160000000000000000e+02,8.160442399999999452e+01
4.170000000000000000e+02,8.175322699999999543e+01
4.180000000000000000e+02,8.190197000000000571e+01
4.190000000000000000e+02,8.205063599999999724e+01
4.200000000000000000e+02,8.219923400000000413e+01
4.210000000000000000e+02,8.234777099999999450e+01
4.220000000000000000e+02,8.249623099999999454e+01
4.230000000000000000e+02,8.264461500000000171e+01
4.240000000000000000e+02,8.279293800000000658e+01
4.250000000000000000e+02,8.294118500000000438e+01
4.260000000000000000e+02,8.308936300000000585e+01
4.270000000000000000e+02,8.323747299999999427e+01
4.280000000000000000e+02,8.338551300000000310e+01
4.290000000000000000e+02,8.353348499999999888e+01
4.300000000000000000e+02,8.368138899999999580e+01
4.310000000000000000e+02,8.382921600000000240e+01
4.320000000000000000e+02,8.397697399999999845e+01
4.330000000000000000e+02,8.412466399999999567e+01
4.340000000000000000e+02,8.427228499999999656e+01
4.350000000000000000e+02,8.441983000000000459e+01
4.360000000000000000e+02,8.456730699999999956e+01
4.370000000000000000e+02,8.471472199999999475e+01
4.380000000000000000e+02,8.486206099999999708e+01
4.390000000000000000e+02,8.500933100000000309e+01
4.400000000000000000e+02,8.515652500000000202e+01
4.410000000000000000e+02,8.530365000000000464e+01
4.420000000000000000e+02,8.545071400000000494e+01
4.430000000000000000e+02,8.559770199999999818e+01
4.440000000000000000e+02,8.574461399999999855e+01
4.450000000000000000e+02,8.589146399999999915e+01
4.460000000000000000e+02,8.603823900000000435e+01
4.470000000000000000e+02,8.618494400000000155e+01
4.480000000000000000e+02,8.633158099999999990e+01
4.490000000000000000e+02,8.647814900000000193e+01
4.500000000000000000e+02,8.662464099999999689e+01
4.510000000000000000e+02,8.677106499999999301e+01
4.520000000000000000e+02,8.691741899999999532e+01
4.530000000000000000e+02,8.706369800000000225e+01
4.540000000000000000e+02,8.720991499999999519e+01
4.550000000000000000e+02,8.735605599999999527e+01
4.560000000000000000e+02,8.750212899999999649e+01
4.570000000000000000e+02,8.764812499999999318e+01
4.580000000000000000e+02,8.779406000000000176e+01
4.590000000000000000e+02,8.793991900000000328e+01
4.600000000000000000e+02,8.808570899999999426e+01
4.610000000000000000e+02,8.823143000000000313e+01
4.620000000000000000e+02,8.837707500000000493e+01
4.630000000000000000e+02,8.852265199999999368e+01
4.640000000000000000e+02,8.866815900000000283e+01
4.650000000000000000e+02,8.881359899999999641e+01
4.660000000000000000e+02,8.895896100000000217e+01
4.670000000000000000e+02,8.910425600000000657e+01
4.680000000000000000e+02,8.924948100000000295e+01
4.690000000000000000e+02,8.939463000000000648e+01
4.700000000000000000e+02,8.953971900000000517e+01
4.710000000000000000e+02,8.968473099999999931e+01
4.720000000000000000e+02,8.982966600000000312e+01
4.730000000000000000e+02,8.997454100000000210e+01
4.740000000000000000e+02,9.011933899999999653e+01
4.750000000000000000e+02,9.026406099999999810e+01
4.760000000000000000e+02,9.040872199999999737e+01
4.770000000000000000e+02,9.055329899999999554e+01
4.780000000000000000e+02,9.069781500000000563e+01
4.790000000000000000e+02,9.084226200000000517e+01
4.800000000000000000e+02,9.098663299999999765e+01
4.810000000000000000e+02,9.113093600000000549e+01
4.820000000000000000e+02,9.127516199999999458e+01
4.830000000000000000e+02,9.141932699999999556e+01
4.840000000000000000e+02,9.156340799999999547e+01
4.850000000000000000e+02,9.170742799999999306e+01
4.860000000000000000e+02,9.185137199999999780e+01
4.870000000000000000e+02,9.199523899999999799e+01
4.880000000000000000e+02,9.213903799999999933e+01
4.890000000000000000e+02,9.228276800000000435e+01
4.900000000000000000e+02,9.242642999999999631e+01
4.910000000000000000e+02,9.257001499999999794e+01
4.920000000000000000e+02,9.271353100000000325e+01
4.930000000000000000e+02,9.285697899999999549e+01
4.940000000000000000e+02,9.300035099999999488e+01
4.950000000000000000e+02,9.314365399999999795e+01
4.960000000000000000e+02,9.328687999999999647e+01
4.970000000000000000e+02,9.343003799999999615e+01
4.980000000000000000e+02,9.357312799999999697e+01
4.990000000000000000e+02,9.371614099999999326e+01
5.000000000000000000e+02,9.385907699999999920e+01
5.010000000000000000e+02,9.400195300000000032e+01
5.020000000000000000e+02,9.414474500000000035e+01
5.030000000000000000e+02,9.428747599999999807e+01
5.040000000000000000e+02,9.443013000000000545e+01
5.050000000000000000e+02,9.457270800000000577e+01
5.060000000000000000e+02,9.471521799999999303e+01
5.070000000000000000e+02,9.485765800000000070e+01
5.080000000000000000e+02,9.500002299999999877e+01
5.090000000000000000e+02,9.514231900000000053e+01
5.100000000000000000e+02,9.528454600000000596e+01
5.110000000000000000e+02,9.542669700000000432e+01
5.120000000000000000e+02,9.556877099999999814e+01
5.130000000000000000e+02,9.571077699999999311e+01
5.140000000000000000e+02,9.585270699999999522e+01
5.150000000000000000e+02,9.599456800000000101e+01
5.160000000000000000e+02,9.613635299999999972e+01
5.170000000000000000e+02,9.627806900000000212e+01
5.180000000000000000e+02,9.641970799999999997e+01
5.190000000000000000e+02,9.656127899999999897e+01
5.200000000000000000e+02,9.670277400000000512e+01
5.210000000000000000e+02,9.684420000000000073e+01
5.220000000000000000e+02,9.698555000000000348e+01
5.230000000000000000e+02,9.712683099999999570e+01
5.240000000000000000e+02,9.726803599999999506e+01
5.250000000000000000e+02,9.740917199999999809e+01
5.260000000000000000e+02,9.755023199999999406e+01
5.270000000000000000e+02,9.769122299999999370e+01
5.280000000000000000e+02,9.783213800000000049e+01
5.290000000000000000e+02,9.797297700000000020e+01
5.300000000000000000e+02,9.811373899999999537e+01
5.310000000000000000e+02,9.825443300000000590e+01
5.320000000000000000e+02,9.839505800000000590e+01
5.330000000000000000e+02,9.853559900000000482e+01
5.340000000000000000e+02,9.867607900000000143e+01
5.350000000000000000e+02,9.881647499999999695e+01
5.360000000000000000e+02,9.895680199999999616e+01
5.370000000000000000e+02,9.909705399999999997e+01
5.380000000000000000e+02,9.923722800000000177e+01
5.390000000000000000e+02,9.937733500000000220e+01
5.400000000000000000e+02,9.951736499999999808e+01
5.410000000000000000e+02,9.965732599999999763e+01
5.420000000000000000e+02,9.979720299999999611e+01
5.430000000000000000e+02,9.993701900000000649e+01
5.440000000000000000e+02,1.000767599999999931e+02
5.450000000000000000e+02,1.002164199999999994e+02
5.460000000000000000e+02,1.003560099999999977e+02
5.470000000000000000e+02,1.004955300000000022e+02
5.480000000000000000e+02,1.006349600000000066e+02
5.490000000000000000e+02,1.007743300000000062e+02
5.500000000000000000e+02,1.009136199999999945e+02
5.510000000000000000e+02,1.010528400000000033e+02
5.520000000000000000e+02,1.011919900000000041e+02
5.530000000000000000e+02,1.013310500000000047e+02
5.540000000000000000e+02,1.014700399999999973e+02
5.550000000000000000e+02,1.016089599999999962e+02
5.560000000000000000e+02,1.017477999999999980e+02
5.570000000000000000e+02,1.018865700000000061e+02
5.580000000000000000e+02,1.020252600000000029e+02
5.590000000000000000e+02,1.021638800000000060e+02
5.600000000000000000e+02,1.023024199999999979e+02
5.610000000000000000e+02,1.024408899999999960e+02
5.620000000000000000e+02,1.025792799999999971e+02
5.630000000000000000e+02,1.027176000000000045e+02
5.640000000000000000e+02,1.028558299999999974e+02
5.650000000000000000e+02,1.029939999999999998e+02
5.660000000000000000e+02,1.031320900000000051e+02
5.670000000000000000e+02,1.032700999999999993e+02
5.680000000000000000e+02,1.034080399999999997e+02
5.690000000000000000e+02,1.035459100000000063e+02
5.700000000000000000e+02,1.036836899999999986e+02
5.710000000000000000e+02,1.038213999999999970e+02
5.720000000000000000e+02,1.039590299999999985e+02
5.730000000000000000e+02,1.040965900000000062e+02
5.740000000000000000e+02,1.042340700000000027e+02
5.750000000000000000e+02,1.043714800000000054e+02
5.760000000000000000e+02,1.045087999999999937e+02
5.770000000000000000e+02,1.046460600000000056e+02
5.780000000000000000e+02,1.047832300000000032e+02
5.790000000000000000e+02,1.049203300000000070e+02
5.800000000000000000e+02,1.050573499999999996e+02
5.810000000000000000e+02,1.051942899999999952e+02
5.820000000000000000e+02,1.053311599999999970e+02
5.830000000000000000e+02,1.054679500000000019e+02
5.840000000000000000e+02,1.056046599999999955e+02
5.850000000000000000e+02,1.057412900000000064e+02
5.860000000000000000e+02,1.058778499999999951e+02
5.870000000000000000e+02,1.060143300000000011e+02
5.880000000000000000e+02,1.061507299999999958e+02
5.890000000000000000e+02,1.062870599999999968e+02
5.900000000000000000e+02,1.064232999999999976e+02
5.910000000000000000e+02,1.065594600000000014e+02
5.920000000000000000e+02,1.066955600000000004e+02
5.930000000000000000e+02,1.068315699999999993e+02
5.940000000000000000e+02,1.069675000000000011e+02
5.950000000000000000e+02,1.071033500000000060e+02
5.960000000000000000e+02,1.072391199999999998e+02
5.970000000000000000e+02,1.073748199999999997e+02
5.980000000000000000e+02,1.075104400000000027e+02
5.990000000000000000e+02,1.076459700000000055e+02