# Time [s], Temperature [C]
1.000000000000000000e+00,2.500000000000000000e+01
2.000000000000000000e+00,2.500000000000000000e+01
3.000000000000000000e+00,2.500000000000000000e+01
4.000000000000000000e+00,2.500000000000000000e+01
5.000000000000000000e+00,2.500000199999999850e+01
6.000000000000000000e+00,2.500000599999999906e+01
7.000000000000000000e+00,2.500002100000000027e+01
8.000000000000000000e+00,2.500007400000000146e+01
9.000000000000000000e+00,2.500022099999999980e+01
1.000000000000000000e+01,2.500056500000000170e+01
1.100000000000000000e+01,2.500128700000000137e+01
1.200000000000000000e+01,2.500266099999999980e+01
1.300000000000000000e+01,2.500505300000000020e+01
1.400000000000000000e+01,2.500892800000000094e+01
1.500000000000000000e+01,2.501483699999999999e+01
1.600000000000000000e+01,2.502338999999999913e+01
1.700000000000000000e+01,2.503524399999999872e+01
1.800000000000000000e+01,2.505107100000000031e+01
1.900000000000000000e+01,2.507154699999999892e+01
2.000000000000000000e+01,2.509732199999999835e+01
2.100000000000000000e+01,2.512902499999999861e+01
2.200000000000000000e+01,2.516723100000000102e+01
2.300000000000000000e+01,2.521247299999999925e+01
2.400000000000000000e+01,2.526522599999999841e+01
2.500000000000000000e+01,2.532591199999999887e+01
2.600000000000000000e+01,2.539489599999999925e+01
2.700000000000000000e+01,2.547248300000000043e+01
2.800000000000000000e+01,2.555892800000000165e+01
2.900000000000000000e+01,2.565443600000000046e+01
3.000000000000000000e+01,2.575916700000000148e+01
3.100000000000000000e+01,2.587323400000000007e+01
3.200000000000000000e+01,2.599671000000000021e+01
3.300000000000000000e+01,2.612962900000000133e+01
3.400000000000000000e+01,2.627200300000000155e+01
3.500000000000000000e+01,2.642380299999999949e+01
3.600000000000000000e+01,2.658498000000000161e+01
3.700000000000000000e+01,2.675546299999999889e+01
3.800000000000000000e+01,2.693515400000000071e+01
3.900000000000000000e+01,2.712394700000000114e+01
4.000000000000000000e+01,2.732170899999999847e+01
4.100000000000000000e+01,2.752830300000000108e+01
4.200000000000000000e+01,2.774357799999999941e+01
4.300000000000000000e+01,2.796737500000000054e+01
4.400000000000000000e+01,2.819952400000000026e+01
4.500000000000000000e+01,2.843985699999999994e+01
4.600000000000000000e+01,2.868819999999999837e+01
4.700000000000000000e+01,2.894435299999999955e+01
4.800000000000000000e+01,2.920814499999999825e+01
4.900000000000000000e+01,2.947938900000000118e+01
5.000000000000000000e+01,2.975789100000000076e+01
5.100000000000000000e+01,3.004346299999999914e+01
5.200000000000000000e+01,3.033591799999999949e+01
5.300000000000000000e+01,3.063507299999999844e+01
5.400000000000000000e+01,3.094073099999999954e+01
5.500000000000000000e+01,3.125271599999999950e+01
5.600000000000000000e+01,3.157084499999999849e+01
5.700000000000000000e+01,3.189493399999999923e+01
5.800000000000000000e+01,3.222480000000000189e+01
5.900000000000000000e+01,3.256028400000000289e+01
6.000000000000000000e+01,3.290121100000000354e+01
6.100000000000000000e+01,3.324741399999999913e+01
6.200000000000000000e+01,3.359871299999999650e+01
6.300000000000000000e+01,3.395495600000000280e+01
6.400000000000000000e+01,3.431598300000000279e+01
6.500000000000000000e+01,3.468163700000000205e+01
6.600000000000000000e+01,3.505177299999999718e+01
6.700000000000000000e+01,3.542622800000000183e+01
6.800000000000000000e+01,3.580487099999999856e+01
6.900000000000000000e+01,3.618756100000000231e+01
7.000000000000000000e+01,3.657415400000000005e+01
7.100000000000000000e+01,3.696451600000000326e+01
7.200000000000000000e+01,3.735851699999999909e+01
7.300000000000000000e+01,3.775602700000000311e+01
7.400000000000000000e+01,3.815692099999999698e+01
7.500000000000000000e+01,3.856108499999999850e+01
7.600000000000000000e+01,3.896839099999999689e+01
7.700000000000000000e+01,3.937873100000000193e+01
7.800000000000000000e+01,3.979198499999999683e+01
7.900000000000000000e+01,4.020805000000000007e+01
8.000000000000000000e+01,4.062682300000000168e+01
8.100000000000000000e+01,4.104820300000000088e+01
8.200000000000000000e+01,4.147207999999999828e+01
8.300000000000000000e+01,4.189836499999999830e+01
8.400000000000000000e+01,4.232696200000000175e+01
8.500000000000000000e+01,4.275778199999999885e+01
8.600000000000000000e+01,4.319072700000000253e+01
8.700000000000000000e+01,4.362572099999999864e+01
8.800000000000000000e+01,4.406267199999999917e+01
8.900000000000000000e+01,4.450149499999999847e+01
9.000000000000000000e+01,4.494212000000000273e+01
9.100000000000000000e+01,4.538446400000000125e+01
9.200000000000000000e+01,4.582845300000000321e+01
9.300000000000000000e+01,4.627403999999999940e+01
9.400000000000000000e+01,4.672113000000000227e+01
9.500000000000000000e+01,4.716965499999999878e+01
9.600000000000000000e+01,4.761953700000000111e+01
9.700000000000000000e+01,4.807072399999999845e+01
9.800000000000000000e+01,4.852315099999999859e+01
9.900000000000000000e+01,4.897676100000000332e+01
1.000000000000000000e+02,4.943150700000000342e+01
1.010000000000000000e+02,4.988734099999999927e+01
1.020000000000000000e+02,5.034416600000000130e+01
1.030000000000000000e+02,5.080194099999999935e+01
1.040000000000000000e+02,5.126062000000000296e+01
1.050000000000000000e+02,5.172014999999999674e+01
1.060000000000000000e+02,5.218049200000000098e+01
1.070000000000000000e+02,5.264160499999999843e+01
1.080000000000000000e+02,5.310344299999999862e+01
1.090000000000000000e+02,5.356592899999999702e+01
1.100000000000000000e+02,5.402902999999999878e+01
1.110000000000000000e+02,5.449271000000000242e+01
1.120000000000000000e+02,5.495694000000000301e+01
1.130000000000000000e+02,5.542168000000000205e+01
1.140000000000000000e+02,5.588690199999999919e+01
1.150000000000000000e+02,5.635252400000000250e+01
1.160000000000000000e+02,5.681852700000000311e+01
1.170000000000000000e+02,5.728488500000000272e+01
1.180000000000000000e+02,5.775157200000000302e+01
1.190000000000000000e+02,5.821855500000000205e+01
1.200000000000000000e+02,5.868580599999999947e+01
1.210000000000000000e+02,5.915326300000000259e+01
1.220000000000000000e+02,5.962090700000000254e+01
1.230000000000000000e+02,6.008871500000000054e+01
1.240000000000000000e+02,6.055666699999999736e+01
1.250000000000000000e+02,6.102473799999999926e+01
1.260000000000000000e+02,6.149291199999999691e+01
1.270000000000000000e+02,6.196111700000000155e+01
1.280000000000000000e+02,6.242935200000000151e+01
1.290000000000000000e+02,6.289759399999999800e+01
1.300000000000000000e+02,6.336582899999999796e+01
1.310000000000000000e+02,6.383403799999999961e+01
1.320000000000000000e+02,6.430219999999999914e+01
1.330000000000000000e+02,6.477025600000000338e+01
1.340000000000000000e+02,6.523821300000000178e+01
1.350000000000000000e+02,6.570604699999999809e+01
1.360000000000000000e+02,6.617373700000000269e+01
1.370000000000000000e+02,6.664128900000000044e+01
1.380000000000000000e+02,6.710867299999999602e+01
1.390000000000000000e+02,6.757583599999999535e+01
1.400000000000000000e+02,6.804278600000000665e+01
1.410000000000000000e+02,6.850950600000000179e+01
1.420000000000000000e+02,6.897598299999999938e+01
1.430000000000000000e+02,6.944221500000000447e+01
1.440000000000000000e+02,6.990818000000000154e+01
1.450000000000000000e+02,7.037384000000000128e+01
1.460000000000000000e+02,7.083918799999999294e+01
1.470000000000000000e+02,7.130421400000000176e+01
1.480000000000000000e+02,7.176891299999999774e+01
1.490000000000000000e+02,7.223328399999999760e+01
1.500000000000000000e+02,7.269731099999999913e+01
1.510000000000000000e+02,7.316094999999999970e+01
1.520000000000000000e+02,7.362419900000000439e+01
1.530000000000000000e+02,7.408705100000000243e+01
1.540000000000000000e+02,7.454950700000000552e+01
1.550000000000000000e+02,7.501155099999999720e+01
1.560000000000000000e+02,7.547319799999999645e+01
1.570000000000000000e+02,7.593440200000000573e+01
1.580000000000000000e+02,7.639514900000000353e+01
1.590000000000000000e+02,7.685543800000000658e+01
1.600000000000000000e+02,7.731526900000000069e+01
1.610000000000000000e+02,7.777462800000000698e+01
1.620000000000000000e+02,7.823352099999999609e+01
1.630000000000000000e+02,7.869195600000000468e+01
1.640000000000000000e+02,7.914987200000000200e+01
1.650000000000000000e+02,7.960727699999999629e+01
1.660000000000000000e+02,8.006417100000000175e+01
1.670000000000000000e+02,8.052054599999999596e+01
1.680000000000000000e+02,8.097638700000000256e+01
1.690000000000000000e+02,8.143170899999999790e+01
1.700000000000000000e+02,8.188652000000000442e+01
1.710000000000000000e+02,8.234078200000000436e+01
1.720000000000000000e+02,8.279448700000000372e+01
1.730000000000000000e+02,8.324763500000000249e+01
1.740000000000000000e+02,8.370021800000000667e+01
1.750000000000000000e+02,8.415222900000000550e+01
1.760000000000000000e+02,8.460366799999999898e+01
1.770000000000000000e+02,8.505455000000000609e+01
1.780000000000000000e+02,8.550484500000000310e+01
1.790000000000000000e+02,8.595455200000000673e+01
1.800000000000000000e+02,8.640367100000000278e+01
1.810000000000000000e+02,8.685218799999999817e+01
1.820000000000000000e+02,8.730011000000000365e+01
1.830000000000000000e+02,8.774742100000000278e+01
1.840000000000000000e+02,8.819412199999999302e+01
1.850000000000000000e+02,8.864021300000000281e+01
1.860000000000000000e+02,8.908570899999999426e+01
1.870000000000000000e+02,8.953058599999999956e+01
1.880000000000000000e+02,8.997483099999999467e+01
1.890000000000000000e+02,9.041844899999999541e+01
1.900000000000000000e+02,9.086143500000000017e+01
1.910000000000000000e+02,9.130379499999999382e+01
1.920000000000000000e+02,9.174551400000000001e+01
1.930000000000000000e+02,9.218659200000000453e+01
1.940000000000000000e+02,9.262702899999999318e+01
1.950000000000000000e+02,9.306684900000000482e+01
1.960000000000000000e+02,9.350600400000000434e+01
1.970000000000000000e+02,9.394451899999999966e+01
1.980000000000000000e+02,9.438237800000000277e+01
1.990000000000000000e+02,9.481958000000000197e+01
2.000000000000000000e+02,9.525613400000000297e+01
2.010000000000000000e+02,9.569202400000000353e+01
2.020000000000000000e+02,9.612725100000000111e+01
2.030000000000000000e+02,9.656182099999999480e+01
2.040000000000000000e+02,9.699572799999999972e+01
2.050000000000000000e+02,9.742896299999999599e+01
2.060000000000000000e+02,9.786154200000000003e+01
2.070000000000000000e+02,9.829345700000000363e+01
2.080000000000000000e+02,9.872469300000000203e+01
2.090000000000000000e+02,9.915525800000000345e+01
2.100000000000000000e+02,9.958515199999999368e+01
2.110000000000000000e+02,1.000143699999999995e+02
2.120000000000000000e+02,1.004429099999999977e+02
2.130000000000000000e+02,1.008707699999999932e+02
2.140000000000000000e+02,1.012979600000000033e+02
2.150000000000000000e+02,1.017244699999999966e+02
2.160000000000000000e+02,1.021503000000000014e+02
2.170000000000000000e+02,1.025754400000000004e+02
2.180000000000000000e+02,1.029998999999999967e+02
2.190000000000000000e+02,1.034236800000000045e+02
2.200000000000000000e+02,1.038467899999999986e+02
2.210000000000000000e+02,1.042691999999999979e+02
2.220000000000000000e+02,1.046909299999999945e+02
2.230000000000000000e+02,1.051119699999999995e+02
2.240000000000000000e+02,1.055323300000000017e+02
2.250000000000000000e+02,1.059519899999999950e+02
2.260000000000000000e+02,1.063709599999999966e+02
2.270000000000000000e+02,1.067892400000000066e+02
2.280000000000000000e+02,1.072068399999999997e+02
2.290000000000000000e+02,1.076237399999999980e+02
2.300000000000000000e+02,1.080399599999999936e+02
2.310000000000000000e+02,1.084554700000000054e+02
2.320000000000000000e+02,1.088703000000000003e+02
2.330000000000000000e+02,1.092844300000000004e+02
2.340000000000000000e+02,1.096978699999999947e+02
2.350000000000000000e+02,1.101106199999999973e+02
2.360000000000000000e+02,1.105226700000000051e+02
2.370000000000000000e+02,1.109340399999999960e+02
2.380000000000000000e+02,1.113447000000000031e+02
2.390000000000000000e+02,1.117546799999999934e+02
2.400000000000000000e+02,1.121639600000000030e+02
2.410000000000000000e+02,1.125725500000000068e+02
2.420000000000000000e+02,1.129804400000000015e+02
2.430000000000000000e+02,1.133876300000000015e+02
2.440000000000000000e+02,1.137941399999999987e+02
2.450000000000000000e+02,1.141999500000000012e+02
2.460000000000000000e+02,1.146050599999999946e+02
2.470000000000000000e+02,1.150094899999999996e+02
2.480000000000000000e+02,1.154132100000000065e+02
2.490000000000000000e+02,1.158162399999999934e+02
2.500000000000000000e+02,1.162185699999999997e+02
2.510000000000000000e+02,1.166201999999999970e+02
2.520000000000000000e+02,1.170211400000000026e+02
2.530000000000000000e+02,1.174213900000000024e+02
2.540000000000000000e+02,1.178209399999999931e+02
2.550000000000000000e+02,1.182198000000000064e+02
2.560000000000000000e+02,1.186179699999999997e+02
2.570000000000000000e+02,1.190154299999999949e+02
2.580000000000000000e+02,1.194122200000000049e+02
2.590000000000000000e+02,1.198083000000000027e+02
2.600000000000000000e+02,1.202036999999999978e+02
2.610000000000000000e+02,1.205983999999999980e+02
2.620000000000000000e+02,1.209924000000000035e+02
2.630000000000000000e+02,1.213857200000000063e+02
2.640000000000000000e+02,1.217783400000000000e+02
2.650000000000000000e+02,1.221702700000000021e+02
2.660000000000000000e+02,1.225615200000000016e+02
2.670000000000000000e+02,1.229520600000000030e+02
2.680000000000000000e+02,1.233419099999999986e+02
2.690000000000000000e+02,1.237310700000000026e+02
2.700000000000000000e+02,1.241195400000000006e+02
2.710000000000000000e+02,1.245073100000000039e+02
2.720000000000000000e+02,1.248943900000000014e+02
2.730000000000000000e+02,1.252807899999999961e+02
2.740000000000000000e+02,1.256664999999999992e+02
2.750000000000000000e+02,1.260515199999999965e+02
2.760000000000000000e+02,1.264358500000000021e+02
2.770000000000000000e+02,1.268195000000000050e+02
2.780000000000000000e+02,1.272024600000000021e+02
2.790000000000000000e+02,1.275847299999999933e+02
2.800000000000000000e+02,1.279663099999999929e+02
2.810000000000000000e+02,1.283471999999999866e+02
2.820000000000000000e+02,1.287273999999999887e+02
2.830000000000000000e+02,1.291069200000000023e+02
2.840000000000000000e+02,1.294857599999999991e+02
2.850000000000000000e+02,1.298639100000000042e+02
2.860000000000000000e+02,1.302413599999999860e+02
2.870000000000000000e+02,1.306181500000000142e+02
2.880000000000000000e+02,1.309942599999999970e+02
2.890000000000000000e+02,1.313696700000000135e+02
2.900000000000000000e+02,1.317444199999999910e+02
2.910000000000000000e+02,1.321184700000000021e+02
2.920000000000000000e+02,1.324918499999999995e+02
2.930000000000000000e+02,1.328645600000000115e+02
2.940000000000000000e+02,1.332365700000000004e+02
2.950000000000000000e+02,1.336079100000000039e+02
2.960000000000000000e+02,1.339785599999999874e+02
2.970000000000000000e+02,1.343485300000000109e+02
2.980000000000000000e+02,1.347178299999999922e+02
2.990000000000000000e+02,1.350864599999999882e+02
3.000000000000000000e+02,1.354544099999999958e+02
3.010000000000000000e+02,1.358216600000000085e+02
3.020000000000000000e+02,1.361882500000000107e+02
3.030000000000000000e+02,1.365541699999999992e+02
3.040000000000000000e+02,1.369194200000000023e+02
3.050000000000000000e+02,1.372839999999999918e+02
3.060000000000000000e+02,1.376478899999999896e+02
3.070000000000000000e+02,1.380111100000000022e+02
3.080000000000000000e+02,1.383736600000000010e+02
3.090000000000000000e+02,1.387355300000000113e+02
3.100000000000000000e+02,1.390967400000000112e+02
3.110000000000000000e+02,1.394572900000000004e+02
3.120000000000000000e+02,1.398171499999999980e+02
3.130000000000000000e+02,1.401763500000000136e+02
3.140000000000000000e+02,1.405348799999999869e+02
3.150000000000000000e+02,1.408927300000000002e+02
3.160000000000000000e+02,1.412499400000000094e+02
3.170000000000000000e+02,1.416064599999999984e+02
3.180000000000000000e+02,1.419623300000000086e+02
3.190000000000000000e+02,1.423175400000000081e+02
3.200000000000000000e+02,1.426720699999999908e+02
3.210000000000000000e+02,1.430259200000000135e+02
3.220000000000000000e+02,1.433791400000000067e+02
3.230000000000000000e+02,1.437316700000000083e+02
3.240000000000000000e+02,1.440835600000000056e+02
3.250000000000000000e+02,1.444347799999999893e+02
3.260000000000000000e+02,1.447853399999999908e+02
3.270000000000000000e+02,1.451352400000000102e+02
3.280000000000000000e+02,1.454844799999999907e+02
3.290000000000000000e+02,1.458330499999999859e+02
3.300000000000000000e+02,1.461809800000000052e+02
3.310000000000000000e+02,1.465282400000000109e+02
3.320000000000000000e+02,1.468748600000000124e+02
3.330000000000000000e+02,1.472208100000000002e+02
3.340000000000000000e+02,1.475661200000000122e+02
3.350000000000000000e+02,1.479107700000000136e+02
3.360000000000000000e+02,1.482547500000000014e+02
3.370000000000000000e+02,1.485980800000000102e+02
3.380000000000000000e+02,1.489407699999999863e+02
3.390000000000000000e+02,1.492828100000000120e+02
3.400000000000000000e+02,1.496241899999999987e+02
3.410000000000000000e+02,1.499649200000000064e+02
3.420000000000000000e+02,1.503050100000000100e+02
3.430000000000000000e+02,1.506444400000000030e+02
3.440000000000000000e+02,1.509832000000000107e+02
3.450000000000000000e+02,1.513213299999999890e+02
3.460000000000000000e+02,1.516588399999999979e+02
3.470000000000000000e+02,1.519956799999999930e+02
3.480000000000000000e+02,1.523318800000000124e+02
3.490000000000000000e+02,1.526674299999999960e+02
3.500000000000000000e+02,1.530023300000000006e+02
3.510000000000000000e+02,1.533365900000000011e+02
3.520000000000000000e+02,1.536702300000000037e+02
3.530000000000000000e+02,1.540031999999999925e+02
3.540000000000000000e+02,1.543355400000000088e+02
3.550000000000000000e+02,1.546672399999999925e+02
3.560000000000000000e+02,1.549982899999999972e+02
3.570000000000000000e+02,1.553287200000000041e+02
3.580000000000000000e+02,1.556585100000000068e+02
3.590000000000000000e+02,1.559876600000000053e+02
3.600000000000000000e+02,1.563161599999999964e+02
3.610000000000000000e+02,1.566440299999999866e+02
3.620000000000000000e+02,1.569712700000000041e+02
3.630000000000000000e+02,1.572978699999999890e+02
3.640000000000000000e+02,1.576238400000000013e+02
3.650000000000000000e+02,1.579491700000000094e+02
3.660000000000000000e+02,1.582738799999999912e+02
3.670000000000000000e+02,1.585979499999999973e+02
3.680000000000000000e+02,1.589213900000000024e+02
3.690000000000000000e+02,1.592442000000000064e+02
3.700000000000000000e+02,1.595663800000000094e+02
3.710000000000000000e+02,1.598879200000000083e+02
3.720000000000000000e+02,1.602088500000000124e+02
3.730000000000000000e+02,1.605291400000000124e+02
3.740000000000000000e+02,1.608488199999999892e+02
3.750000000000000000e+02,1.611678599999999904e+02
3.760000000000000000e+02,1.614862799999999936e+02
3.770000000000000000e+02,1.618040599999999927e+02
3.780000000000000000e+02,1.621212500000000034e+02
3.790000000000000000e+02,1.624377900000000068e+02
3.800000000000000000e+02,1.627537100000000123e+02
3.810000000000000000e+02,1.630690199999999948e+02
3.820000000000000000e+02,1.633837000000000046e+02
3.830000000000000000e+02,1.636977699999999913e+02
3.840000000000000000e+02,1.640112200000000087e+02
3.850000000000000000e+02,1.643240499999999997e+02
3.860000000000000000e+02,1.646362499999999898e+02
3.870000000000000000e+02,1.649478499999999883e+02
3.880000000000000000e+02,1.652588199999999858e+02
3.890000000000000000e+02,1.655691799999999887e+02
3.900000000000000000e+02,1.658789400000000001e+02
3.910000000000000000e+02,1.661880600000000072e+02
3.920000000000000000e+02,1.664965799999999945e+02
3.930000000000000000e+02,1.668044999999999902e+02
3.940000000000000000e+02,1.671117999999999881e+02
3.950000000000000000e+02,1.674184899999999914e+02
3.960000000000000000e+02,1.677245599999999968e+02
3.970000000000000000e+02,1.680300300000000107e+02
3.980000000000000000e+02,1.683348799999999983e+02
3.990000000000000000e+02,1.686391399999999976e+02
4.000000000000000000e+02,1.689427900000000022e+02
4.010000000000000000e+02,1.692458200000000090e+02
4.020000000000000000e+02,1.695482599999999991e+02
4.030000000000000000e+02,1.698500999999999976e+02
4.040000000000000000e+02,1.701513199999999983e+02
4.050000000000000000e+02,1.704519300000000044e+02
4.060000000000000000e+02,1.707519499999999937e+02
4.070000000000000000e+02,1.710513799999999947e+02
4.080000000000000000e+02,1.713502000000000010e+02
4.090000000000000000e+02,1.716484199999999873e+02
4.100000000000000000e+02,1.719460300000000075e+02
4.110000000000000000e+02,1.722430600000000140e+02
4.120000000000000000e+02,1.725394900000000007e+02
4.130000000000000000e+02,1.728353099999999927e+02
4.140000000000000000e+02,1.731305399999999963e+02
4.150000000000000000e+02,1.734251700000000085e+02
4.160000000000000000e+02,1.737192200000000071e+02
4.170000000000000000e+02,1.740126600000000110e+02
4.180000000000000000e+02,1.743055300000000045e+02
4.190000000000000000e+02,1.745977900000000034e+02
4.200000000000000000e+02,1.748894699999999887e+02
4.210000000000000000e+02,1.751805400000000077e+02
4.220000000000000000e+02,1.754710399999999879e+02
4.230000000000000000e+02,1.757609400000000051e+02
4.240000000000000000e+02,1.760502500000000055e+02
4.250000000000000000e+02,1.763389699999999891e+02
4.260000000000000000e+02,1.766271199999999908e+02
4.270000000000000000e+02,1.769146700000000010e+02
4.280000000000000000e+02,1.772016299999999944e+02
4.290000000000000000e+02,1.774880200000000059e+02
4.300000000000000000e+02,1.777738300000000038e+02
4.310000000000000000e+02,1.780590400000000102e+02
4.320000000000000000e+02,1.783436700000000030e+02
4.330000000000000000e+02,1.786277300000000139e+02
4.340000000000000000e+02,1.789112100000000112e+02
4.350000000000000000e+02,1.791941099999999949e+02
4.360000000000000000e+02,1.794764299999999935e+02
4.370000000000000000e+02,1.797581500000000005e+02
4.380000000000000000e+02,1.800393100000000004e+02
4.390000000000000000e+02,1.803198999999999899e+02
4.400000000000000000e+02,1.805998999999999910e+02
4.410000000000000000e+02,1.808793300000000102e+02
4.420000000000000000e+02,1.811581999999999937e+02
4.430000000000000000e+02,1.814364899999999921e+02
4.440000000000000000e+02,1.817142000000000053e+02
4.450000000000000000e+02,1.819913300000000049e+02
4.460000000000000000e+02,1.822679100000000005e+02
4.470000000000000000e+02,1.825439000000000078e+02
4.480000000000000000e+02,1.828193400000000111e+02
4.490000000000000000e+02,1.830941899999999976e+02
4.500000000000000000e+02,1.833684800000000052e+02
4.510000000000000000e+02,1.836422100000000057e+02
4.520000000000000000e+02,1.839153699999999958e+02
4.530000000000000000e+02,1.841879700000000071e+02
4.540000000000000000e+02,1.844599900000000048e+02
4.550000000000000000e+02,1.847314599999999984e+02
4.560000000000000000e+02,1.850023500000000070e+02
4.570000000000000000e+02,1.852726900000000114e+02
4.580000000000000000e+02,1.855424700000000087e+02
4.590000000000000000e+02,1.858116799999999955e+02
4.600000000000000000e+02,1.860803400000000067e+02
4.610000000000000000e+02,1.863484300000000076e+02
4.620000000000000000e+02,1.866159700000000043e+02
4.630000000000000000e+02,1.868829499999999939e+02
4.640000000000000000e+02,1.871493700000000047e+02
4.650000000000000000e+02,1.874152400000000114e+02
4.660000000000000000e+02,1.876805400000000077e+02
4.670000000000000000e+02,1.879453000000000031e+02
4.680000000000000000e+02,1.882094999999999914e+02
4.690000000000000000e+02,1.884731400000000008e+02
4.700000000000000000e+02,1.887362500000000125e+02
4.710000000000000000e+02,1.889987900000000138e+02
4.720000000000000000e+02,1.892607899999999859e+02
4.730000000000000000e+02,1.895222300000000075e+02
4.740000000000000000e+02,1.897831299999999999e+02
4.750000000000000000e+02,1.900434700000000134e+02
4.760000000000000000e+02,1.903032699999999977e+02
4.770000000000000000e+02,1.905625200000000063e+02
4.780000000000000000e+02,1.908212100000000078e+02
4.790000000000000000e+02,1.910793799999999862e+02
4.800000000000000000e+02,1.913369899999999859e+02
4.810000000000000000e+02,1.915940600000000131e+02
4.820000000000000000e+02,1.918505900000000111e+02
4.830000000000000000e+02,1.921065700000000049e+02
4.840000000000000000e+02,1.923620099999999979e+02
4.850000000000000000e+02,1.926169299999999964e+02
4.860000000000000000e+02,1.928712800000000129e+02
4.870000000000000000e+02,1.931251100000000065e+02
4.880000000000000000e+02,1.933783899999999960e+02
4.890000000000000000e+02,1.936311300000000131e+02
4.900000000000000000e+02,1.938833500000000072e+02
4.910000000000000000e+02,1.941350300000000004e+02
4.920000000000000000e+02,1.943861699999999928e+02
4.930000000000000000e+02,1.946367799999999875e+02
4.940000000000000000e+02,1.948868400000000065e+02
4.950000000000000000e+02,1.951363800000000026e+02
4.960000000000000000e+02,1.953853799999999978e+02
4.970000000000000000e+02,1.956338499999999954e+02
4.980000000000000000e+02,1.958818100000000015e+02
4.990000000000000000e+02,1.961292100000000005e+02
5.000000000000000000e+02,1.963761000000000081e+02
5.010000000000000000e+02,1.966224499999999864e+02
5.020000000000000000e+02,1.968682900000000018e+02
5.030000000000000000e+02,1.971135899999999879e+02
5.040000000000000000e+02,1.973583700000000078e+02
5.050000000000000000e+02,1.976026200000000017e+02
5.060000000000000000e+02,1.978463399999999979e+02
5.070000000000000000e+02,1.980895500000000027e+02
5.080000000000000000e+02,1.983322300000000098e+02
5.090000000000000000e+02,1.985743899999999940e+02
5.100000000000000000e+02,1.988160100000000057e+02
5.110000000000000000e+02,1.990571400000000040e+02
5.120000000000000000e+02,1.992977300000000014e+02
5.130000000000000000e+02,1.995378100000000074e+02
5.140000000000000000e+02,1.997773699999999906e+02
5.150000000000000000e+02,2.000164200000000108e+02
5.160000000000000000e+02,2.002549400000000048e+02
5.170000000000000000e+02,2.004929700000000139e+02
5.180000000000000000e+02,2.007304499999999905e+02
5.190000000000000000e+02,2.009674400000000105e+02
5.200000000000000000e+02,2.012039000000000044e+02
5.210000000000000000e+02,2.014398700000000133e+02
5.220000000000000000e+02,2.016753099999999961e+02
5.230000000000000000e+02,2.019102499999999907e+02
5.240000000000000000e+02,2.021446500000000128e+02
5.250000000000000000e+02,2.023785699999999963e+02
5.260000000000000000e+02,2.026119700000000137e+02
5.270000000000000000e+02,2.028448799999999892e+02
5.280000000000000000e+02,2.030772699999999986e+02
5.290000000000000000e+02,2.033091400000000135e+02
5.300000000000000000e+02,2.035405299999999897e+02
5.310000000000000000e+02,2.037713899999999967e+02
5.320000000000000000e+02,2.040017699999999934e+02
5.330000000000000000e+02,2.042316399999999987e+02
5.340000000000000000e+02,2.044610000000000127e+02
5.350000000000000000e+02,2.046898700000000133e+02
5.360000000000000000e+02,2.049182299999999941e+02
5.370000000000000000e+02,2.051460899999999867e+02
5.380000000000000000e+02,2.053734399999999880e+02
5.390000000000000000e+02,2.056003100000000074e+02
5.400000000000000000e+02,2.058266800000000103e+02
5.410000000000000000e+02,2.060525399999999934e+02
5.420000000000000000e+02,2.062779199999999946e+02
5.430000000000000000e+02,2.065027900000000045e+02
5.440000000000000000e+02,2.067271900000000073e+02
5.450000000000000000e+02,2.069510699999999872e+02
5.460000000000000000e+02,2.071744700000000137e+02
5.470000000000000000e+02,2.073973699999999951e+02
5.480000000000000000e+02,2.076197799999999916e+02
5.490000000000000000e+02,2.078417100000000062e+02
5.500000000000000000e+02,2.080631400000000042e+02
5.510000000000000000e+02,2.082840899999999920e+02
5.520000000000000000e+02,2.085045299999999884e+02
5.530000000000000000e+02,2.087245000000000061e+02
5.540000000000000000e+02,2.089439800000000105e+02
5.550000000000000000e+02,2.091629800000000046e+02
5.560000000000000000e+02,2.093814999999999884e+02
5.570000000000000000e+02,2.095995200000000125e+02
5.580000000000000000e+02,2.098170599999999979e+02
5.590000000000000000e+02,2.100341200000000015e+02
5.600000000000000000e+02,2.102506999999999948e+02
5.610000000000000000e+02,2.104668000000000063e+02
5.620000000000000000e+02,2.106824200000000076e+02
5.630000000000000000e+02,2.108975499999999954e+02
5.640000000000000000e+02,2.111122100000000046e+02
5.650000000000000000e+02,2.113264000000000067e+02
5.660000000000000000e+02,2.115400999999999954e+02
5.670000000000000000e+02,2.117533300000000054e+02
5.680000000000000000e+02,2.119660800000000052e+02
5.690000000000000000e+02,2.121783599999999979e+02
5.700000000000000000e+02,2.123901700000000119e+02
5.710000000000000000e+02,2.126014999999999873e+02
5.720000000000000000e+02,2.128123600000000124e+02
5.730000000000000000e+02,2.130227500000000020e+02
5.740000000000000000e+02,2.132326700000000130e+02
5.750000000000000000e+02,2.134421199999999885e+02
5.760000000000000000e+02,2.136510900000000106e+02
5.770000000000000000e+02,2.138596000000000004e+02
5.780000000000000000e+02,2.140676400000000115e+02
5.790000000000000000e+02,2.142752199999999903e+02
5.800000000000000000e+02,2.144823299999999904e+02
5.810000000000000000e+02,2.146889799999999866e+02
5.820000000000000000e+02,2.148951600000000042e+02
5.830000000000000000e+02,2.151008799999999894e+02
5.840000000000000000e+02,2.153061399999999992e+02
5.850000000000000000e+02,2.155109300000000019e+02
5.860000000000000000e+02,2.157152600000000007e+02
5.870000000000000000e+02,2.159191299999999956e+02
5.880000000000000000e+02,2.161225399999999865e+02
5.890000000000000000e+02,2.163255000000000052e+02
5.900000000000000000e+02,2.165279999999999916e+02
5.910000000000000000e+02,2.167300400000000025e+02
5.920000000000000000e+02,2.169316300000000126e+02
5.930000000000000000e+02,2.171327499999999873e+02
5.940000000000000000e+02,2.173334199999999896e+02
5.950000000000000000e+02,2.175336499999999944e+02
5.960000000000000000e+02,2.177334099999999921e+02
5.970000000000000000e+02,2.179327199999999891e+02
5.980000000000000000e+02,2.181315899999999885e+02
5.990000000000000000e+02,2.183300000000000125e+02