# Time [s], Temperature [C]
1.000000000000000000e+00,2.500000000000000000e+01
2.000000000000000000e+00,2.500000000000000000e+01
3.000000000000000000e+00,2.500000000000000000e+01
4.000000000000000000e+00,2.500000000000000000e+01
5.000000000000000000e+00,2.500000000000000000e+01
6.000000000000000000e+00,2.500000199999999850e+01
7.000000000000000000e+00,2.500000999999999962e+01
8.000000000000000000e+00,2.500003099999999989e+01
9.000000000000000000e+00,2.500009500000000173e+01
1.000000000000000000e+01,2.500025400000000175e+01
1.100000000000000000e+01,2.500060300000000169e+01
1.200000000000000000e+01,2.500129499999999894e+01
1.300000000000000000e+01,2.500254599999999883e+01
1.400000000000000000e+01,2.500465000000000160e+01
1.500000000000000000e+01,2.500796899999999923e+01
1.600000000000000000e+01,2.501292799999999872e+01
1.700000000000000000e+01,2.501999999999999957e+01
1.800000000000000000e+01,2.502969699999999875e+01
1.900000000000000000e+01,2.504254900000000106e+01
2.000000000000000000e+01,2.505909199999999970e+01
2.100000000000000000e+01,2.507985700000000051e+01
2.200000000000000000e+01,2.510535799999999895e+01
2.300000000000000000e+01,2.513608400000000032e+01
2.400000000000000000e+01,2.517248899999999878e+01
2.500000000000000000e+01,2.521499400000000080e+01
2.600000000000000000e+01,2.526397899999999908e+01
2.700000000000000000e+01,2.531978799999999907e+01
2.800000000000000000e+01,2.538271500000000103e+01
2.900000000000000000e+01,2.545302600000000126e+01
3.000000000000000000e+01,2.553093300000000099e+01
3.100000000000000000e+01,2.561661300000000097e+01
3.200000000000000000e+01,2.571021999999999963e+01
3.300000000000000000e+01,2.581187200000000104e+01
3.400000000000000000e+01,2.592164400000000057e+01
3.500000000000000000e+01,2.603958499999999887e+01
3.600000000000000000e+01,2.616572800000000143e+01
3.700000000000000000e+01,2.630007900000000021e+01
3.800000000000000000e+01,2.644262099999999904e+01
3.900000000000000000e+01,2.659330900000000142e+01
4.000000000000000000e+01,2.675210799999999978e+01
4.100000000000000000e+01,2.691893999999999920e+01
4.200000000000000000e+01,2.709372300000000067e+01
4.300000000000000000e+01,2.727635599999999982e+01
4.400000000000000000e+01,2.746673799999999943e+01
4.500000000000000000e+01,2.766475300000000104e+01
4.600000000000000000e+01,2.787028499999999909e+01
4.700000000000000000e+01,2.808319900000000047e+01
4.800000000000000000e+01,2.830336799999999897e+01
4.900000000000000000e+01,2.853065099999999887e+01
5.000000000000000000e+01,2.876491000000000042e+01
5.100000000000000000e+01,2.900600199999999873e+01
5.200000000000000000e+01,2.925377999999999901e+01
5.300000000000000000e+01,2.950808299999999917e+01
5.400000000000000000e+01,2.976876999999999995e+01
5.500000000000000000e+01,3.003568599999999833e+01
5.600000000000000000e+01,3.030869900000000072e+01
5.700000000000000000e+01,3.058763899999999936e+01
5.800000000000000000e+01,3.087237500000000168e+01
5.900000000000000000e+01,3.116276600000000130e+01
6.000000000000000000e+01,3.145863900000000157e+01
6.100000000000000000e+01,3.175983599999999996e+01
6.200000000000000000e+01,3.206624200000000258e+01
6.300000000000000000e+01,3.237772400000000061e+01
6.400000000000000000e+01,3.269413000000000125e+01
6.500000000000000000e+01,3.301533500000000032e+01
6.600000000000000000e+01,3.334116699999999867e+01
6.700000000000000000e+01,3.367150500000000335e+01
6.800000000000000000e+01,3.400624799999999937e+01
6.900000000000000000e+01,3.434525299999999959e+01
7.000000000000000000e+01,3.468836999999999904e+01
7.100000000000000000e+01,3.503547999999999973e+01
7.200000000000000000e+01,3.538645199999999846e+01
7.300000000000000000e+01,3.574119600000000219e+01
7.400000000000000000e+01,3.609961299999999795e+01
7.500000000000000000e+01,3.646157500000000340e+01
7.600000000000000000e+01,3.682696200000000175e+01
7.700000000000000000e+01,3.719566300000000325e+01
7.800000000000000000e+01,3.756757000000000346e+01
7.900000000000000000e+01,3.794257400000000047e+01
8.000000000000000000e+01,3.832057999999999964e+01
8.100000000000000000e+01,3.870149200000000178e+01
8.200000000000000000e+01,3.908521999999999963e+01
8.300000000000000000e+01,3.947166399999999697e+01
8.400000000000000000e+01,3.986073700000000031e+01
8.500000000000000000e+01,4.025233800000000173e+01
8.600000000000000000e+01,4.064638500000000221e+01
8.700000000000000000e+01,4.104279300000000319e+01
8.800000000000000000e+01,4.144147099999999995e+01
8.900000000000000000e+01,4.184235400000000027e+01
9.000000000000000000e+01,4.224536499999999961e+01
9.100000000000000000e+01,4.265042900000000259e+01
9.200000000000000000e+01,4.305746800000000007e+01
9.300000000000000000e+01,4.346640800000000127e+01
9.400000000000000000e+01,4.387717099999999704e+01
9.500000000000000000e+01,4.428967999999999705e+01
9.600000000000000000e+01,4.470387300000000153e+01
9.700000000000000000e+01,4.511967800000000040e+01
9.800000000000000000e+01,4.553703699999999799e+01
9.900000000000000000e+01,4.595588699999999704e+01
1.000000000000000000e+02,4.637617099999999937e+01
1.010000000000000000e+02,4.679782900000000012e+01
1.020000000000000000e+02,4.722080600000000317e+01
1.030000000000000000e+02,4.764504999999999768e+01
1.040000000000000000e+02,4.807051100000000332e+01
1.050000000000000000e+02,4.849713899999999711e+01
1.060000000000000000e+02,4.892488099999999918e+01
1.070000000000000000e+02,4.935369099999999776e+01
1.080000000000000000e+02,4.978352399999999989e+01
1.090000000000000000e+02,5.021435499999999763e+01
1.100000000000000000e+02,5.064609099999999842e+01
1.110000000000000000e+02,5.107865499999999770e+01
1.120000000000000000e+02,5.151204299999999847e+01
1.130000000000000000e+02,5.194620499999999907e+01
1.140000000000000000e+02,5.238111500000000120e+01
1.150000000000000000e+02,5.281672700000000020e+01
1.160000000000000000e+02,5.325300599999999918e+01
1.170000000000000000e+02,5.368992599999999982e+01
1.180000000000000000e+02,5.412744500000000158e+01
1.190000000000000000e+02,5.456553600000000159e+01
1.200000000000000000e+02,5.500415000000000276e+01
1.210000000000000000e+02,5.544329100000000210e+01
1.220000000000000000e+02,5.588284300000000115e+01
1.230000000000000000e+02,5.632280699999999740e+01
1.240000000000000000e+02,5.676315300000000263e+01
1.250000000000000000e+02,5.720386100000000340e+01
1.260000000000000000e+02,5.764490500000000139e+01
1.270000000000000000e+02,5.808625399999999672e+01
1.280000000000000000e+02,5.852788199999999819e+01
1.290000000000000000e+02,5.896978000000000009e+01
1.300000000000000000e+02,5.941190300000000235e+01
1.310000000000000000e+02,5.985426300000000310e+01
1.320000000000000000e+02,6.029675300000000249e+01
1.330000000000000000e+02,6.073937600000000003e+01
1.340000000000000000e+02,6.118212100000000220e+01
1.350000000000000000e+02,6.162497299999999711e+01
1.360000000000000000e+02,6.206790500000000321e+01
1.370000000000000000e+02,6.251090200000000152e+01
1.380000000000000000e+02,6.295394499999999738e+01
1.390000000000000000e+02,6.339702599999999677e+01
1.400000000000000000e+02,6.384014100000000269e+01
1.410000000000000000e+02,6.428322599999999909e+01
1.420000000000000000e+02,6.472624199999999917e+01
1.430000000000000000e+02,6.516918900000000292e+01
1.440000000000000000e+02,6.561206099999999708e+01
1.450000000000000000e+02,6.605484800000000689e+01
1.460000000000000000e+02,6.649752800000000263e+01
1.470000000000000000e+02,6.694008599999999376e+01
1.480000000000000000e+02,6.738253000000000270e+01
1.490000000000000000e+02,6.782486000000000104e+01
1.500000000000000000e+02,6.826699800000000096e+01
1.510000000000000000e+02,6.870892299999999864e+01
1.520000000000000000e+02,6.915064999999999884e+01
1.530000000000000000e+02,6.959215500000000532e+01
1.540000000000000000e+02,7.003343999999999880e+01
1.550000000000000000e+02,7.047448699999999633e+01
1.560000000000000000e+02,7.091529800000000705e+01
1.570000000000000000e+02,7.135585000000000377e+01
1.580000000000000000e+02,7.179614999999999725e+01
1.590000000000000000e+02,7.223619800000000168e+01
1.600000000000000000e+02,7.267594099999999457e+01
1.610000000000000000e+02,7.311534899999999482e+01
1.620000000000000000e+02,7.355442800000000148e+01
1.630000000000000000e+02,7.399317899999999781e+01
1.640000000000000000e+02,7.443159500000000151e+01
1.650000000000000000e+02,7.486966700000000685e+01
1.660000000000000000e+02,7.530739599999999712e+01
1.670000000000000000e+02,7.574476599999999848e+01
1.680000000000000000e+02,7.618178600000000245e+01
1.690000000000000000e+02,7.661846900000000460e+01
1.700000000000000000e+02,7.705474900000000105e+01
1.710000000000000000e+02,7.749060099999999807e+01
1.720000000000000000e+02,7.792603300000000388e+01
1.730000000000000000e+02,7.836104600000000175e+01
1.740000000000000000e+02,7.879563899999999421e+01
1.750000000000000000e+02,7.922980499999999893e+01
1.760000000000000000e+02,7.966353599999999346e+01
1.770000000000000000e+02,8.009684000000000026e+01
1.780000000000000000e+02,8.052970100000000286e+01
1.790000000000000000e+02,8.096212800000000698e+01
1.800000000000000000e+02,8.139412699999999745e+01
1.810000000000000000e+02,8.182569900000000018e+01
1.820000000000000000e+02,8.225678999999999519e+01
1.830000000000000000e+02,8.268737000000000137e+01
1.840000000000000000e+02,8.311745500000000675e+01
1.850000000000000000e+02,8.354704999999999870e+01
1.860000000000000000e+02,8.397615100000000155e+01
1.870000000000000000e+02,8.440474700000000041e+01
1.880000000000000000e+02,8.483284799999999848e+01
1.890000000000000000e+02,8.526043699999999603e+01
1.900000000000000000e+02,8.568752299999999877e+01
1.910000000000000000e+02,8.611409000000000447e+01
1.920000000000000000e+02,8.654014599999999291e+01
1.930000000000000000e+02,8.696568299999999851e+01
1.940000000000000000e+02,8.739070900000000108e+01
1.950000000000000000e+02,8.781524699999999939e+01
1.960000000000000000e+02,8.823934199999999350e+01
1.970000000000000000e+02,8.866287199999999302e+01
1.980000000000000000e+02,8.908584600000000364e+01
1.990000000000000000e+02,8.950826999999999600e+01
2.000000000000000000e+02,8.993013799999999947e+01
2.010000000000000000e+02,9.035145599999999888e+01
2.020000000000000000e+02,9.077222399999999425e+01
2.030000000000000000e+02,9.119242900000000418e+01
2.040000000000000000e+02,9.161207600000000184e+01
2.050000000000000000e+02,9.203116599999999892e+01
2.060000000000000000e+02,9.244969199999999887e+01
2.070000000000000000e+02,9.286765300000000423e+01
2.080000000000000000e+02,9.328504900000000077e+01
2.090000000000000000e+02,9.370187400000000366e+01
2.100000000000000000e+02,9.411812600000000373e+01
2.110000000000000000e+02,9.453379800000000444e+01
2.120000000000000000e+02,9.494889799999999980e+01
2.130000000000000000e+02,9.536342600000000402e+01
2.140000000000000000e+02,9.577736699999999814e+01
2.150000000000000000e+02,9.619073500000000365e+01
2.160000000000000000e+02,9.660351599999999905e+01
2.170000000000000000e+02,9.701573199999999986e+01
2.180000000000000000e+02,9.742737599999999532e+01
2.190000000000000000e+02,9.783841700000000685e+01
2.200000000000000000e+02,9.824888599999999883e+01
2.210000000000000000e+02,9.865876000000000090e+01
2.220000000000000000e+02,9.906803899999999885e+01
2.230000000000000000e+02,9.947672300000000689e+01
2.240000000000000000e+02,9.988480400000000259e+01
2.250000000000000000e+02,1.002922899999999942e+02
2.260000000000000000e+02,1.006991900000000015e+02
2.270000000000000000e+02,1.011054900000000032e+02
2.280000000000000000e+02,1.015112000000000023e+02
2.290000000000000000e+02,1.019163099999999957e+02
2.300000000000000000e+02,1.023208000000000055e+02
2.310000000000000000e+02,1.027246899999999954e+02
2.320000000000000000e+02,1.031279799999999938e+02
2.330000000000000000e+02,1.035306599999999975e+02
2.340000000000000000e+02,1.039327399999999955e+02
2.350000000000000000e+02,1.043342099999999988e+02
2.360000000000000000e+02,1.047350799999999964e+02
2.370000000000000000e+02,1.051353399999999993e+02
2.380000000000000000e+02,1.055349899999999934e+02
2.390000000000000000e+02,1.059340100000000007e+02
2.400000000000000000e+02,1.063324300000000022e+02
2.410000000000000000e+02,1.067302300000000059e+02
2.420000000000000000e+02,1.071274300000000039e+02
2.430000000000000000e+02,1.075240199999999930e+02
2.440000000000000000e+02,1.079199899999999985e+02
2.450000000000000000e+02,1.083153599999999983e+02
2.460000000000000000e+02,1.087101100000000002e+02
2.470000000000000000e+02,1.091042599999999965e+02
2.480000000000000000e+02,1.094977899999999948e+02
2.490000000000000000e+02,1.098907099999999986e+02
2.500000000000000000e+02,1.102830000000000013e+02
2.510000000000000000e+02,1.106746700000000061e+02
2.520000000000000000e+02,1.110657300000000021e+02
2.530000000000000000e+02,1.114561800000000034e+02
2.540000000000000000e+02,1.118460100000000068e+02
2.550000000000000000e+02,1.122352199999999982e+02
2.560000000000000000e+02,1.126238299999999981e+02
2.570000000000000000e+02,1.130117900000000049e+02
2.580000000000000000e+02,1.133991500000000059e+02
2.590000000000000000e+02,1.137858800000000059e+02
2.600000000000000000e+02,1.141720300000000066e+02
2.610000000000000000e+02,1.145575599999999952e+02
2.620000000000000000e+02,1.149424599999999970e+02
2.630000000000000000e+02,1.153267400000000009e+02
2.640000000000000000e+02,1.157104099999999960e+02
2.650000000000000000e+02,1.160934699999999964e+02
2.660000000000000000e+02,1.164759099999999989e+02
2.670000000000000000e+02,1.168577300000000037e+02
2.680000000000000000e+02,1.172389299999999963e+02
2.690000000000000000e+02,1.176195100000000053e+02
2.700000000000000000e+02,1.179994700000000023e+02
2.710000000000000000e+02,1.183788100000000014e+02
2.720000000000000000e+02,1.187575400000000059e+02
2.730000000000000000e+02,1.191356499999999983e+02
2.740000000000000000e+02,1.195131400000000070e+02
2.750000000000000000e+02,1.198900000000000006e+02
2.760000000000000000e+02,1.202662499999999994e+02
2.770000000000000000e+02,1.206418900000000036e+02
2.780000000000000000e+02,1.210168800000000005e+02
2.790000000000000000e+02,1.213912799999999947e+02
2.800000000000000000e+02,1.217650500000000022e+02
2.810000000000000000e+02,1.221382299999999930e+02
2.820000000000000000e+02,1.225108000000000033e+02
2.830000000000000000e+02,1.228827500000000015e+02
2.840000000000000000e+02,1.232540699999999987e+02
2.850000000000000000e+02,1.236247800000000012e+02
2.860000000000000000e+02,1.239948700000000059e+02
2.870000000000000000e+02,1.243643600000000049e+02
2.880000000000000000e+02,1.247332200000000029e+02
2.890000000000000000e+02,1.251014600000000030e+02
2.900000000000000000e+02,1.254690999999999974e+02
2.910000000000000000e+02,1.258361299999999972e+02
2.920000000000000000e+02,1.262025100000000037e+02
2.930000000000000000e+02,1.265683099999999968e+02
2.940000000000000000e+02,1.269334699999999998e+02
2.950000000000000000e+02,1.272980400000000003e+02
2.960000000000000000e+02,1.276619900000000030e+02
2.970000000000000000e+02,1.280253399999999999e+02
2.980000000000000000e+02,1.283880800000000022e+02
2.990000000000000000e+02,1.287502100000000098e+02
3.000000000000000000e+02,1.291117099999999880e+02
3.010000000000000000e+02,1.294725999999999999e+02
3.020000000000000000e+02,1.298328899999999919e+02
3.030000000000000000e+02,1.301925400000000081e+02
3.040000000000000000e+02,1.305515699999999981e+02
3.050000000000000000e+02,1.309100300000000061e+02
3.060000000000000000e+02,1.312678799999999910e+02
3.070000000000000000e+02,1.316251200000000097e+02
3.080000000000000000e+02,1.319817700000000116e+02
3.090000000000000000e+02,1.323377800000000093e+02
3.100000000000000000e+02,1.326931899999999871e+02
3.110000000000000000e+02,1.330480000000000018e+02
3.120000000000000000e+02,1.334021799999999871e+02
3.130000000000000000e+02,1.337557799999999872e+02
3.140000000000000000e+02,1.341087499999999864e+02
3.150000000000000000e+02,1.344611500000000035e+02
3.160000000000000000e+02,1.348129299999999944e+02
3.170000000000000000e+02,1.351640899999999874e+02
3.180000000000000000e+02,1.355146499999999889e+02
3.190000000000000000e+02,1.358646200000000022e+02
3.200000000000000000e+02,1.362139699999999891e+02
3.210000000000000000e+02,1.365627299999999877e+02
3.220000000000000000e+02,1.369108899999999949e+02
3.230000000000000000e+02,1.372584400000000073e+02
3.240000000000000000e+02,1.376054100000000062e+02
3.250000000000000000e+02,1.379517500000000041e+02
3.260000000000000000e+02,1.382975000000000136e+02
3.270000000000000000e+02,1.386426500000000033e+02
3.280000000000000000e+02,1.389872100000000046e+02
3.290000000000000000e+02,1.393311500000000080e+02
3.300000000000000000e+02,1.396744999999999948e+02
3.310000000000000000e+02,1.400172699999999963e+02
3.320000000000000000e+02,1.403594400000000064e+02
3.330000000000000000e+02,1.407009899999999902e+02
3.340000000000000000e+02,1.410419799999999952e+02
3.350000000000000000e+02,1.413823199999999929e+02
3.360000000000000000e+02,1.417220800000000054e+02
3.370000000000000000e+02,1.420612600000000043e+02
3.380000000000000000e+02,1.423998599999999897e+02
3.390000000000000000e+02,1.427378500000000088e+02
3.400000000000000000e+02,1.430752599999999859e+02
3.410000000000000000e+02,1.434120499999999936e+02
3.420000000000000000e+02,1.437482500000000130e+02
3.430000000000000000e+02,1.440838500000000124e+02
3.440000000000000000e+02,1.444188800000000015e+02
3.450000000000000000e+02,1.447533300000000054e+02
3.460000000000000000e+02,1.450871699999999862e+02
3.470000000000000000e+02,1.454204100000000039e+02
3.480000000000000000e+02,1.457530700000000081e+02
3.490000000000000000e+02,1.460851399999999956e+02
3.500000000000000000e+02,1.464166400000000010e+02
3.510000000000000000e+02,1.467475599999999929e+02
3.520000000000000000e+02,1.470778799999999933e+02
3.530000000000000000e+02,1.474075799999999958e+02
3.540000000000000000e+02,1.477367099999999880e+02
3.550000000000000000e+02,1.480652599999999950e+02
3.560000000000000000e+02,1.483932499999999948e+02
3.570000000000000000e+02,1.487206400000000031e+02
3.580000000000000000e+02,1.490474499999999978e+02
3.590000000000000000e+02,1.493736600000000010e+02
3.600000000000000000e+02,1.496992799999999875e+02
3.610000000000000000e+02,1.500243399999999951e+02
3.620000000000000000e+02,1.503488199999999892e+02
3.630000000000000000e+02,1.506727099999999950e+02
3.640000000000000000e+02,1.509960199999999872e+02
3.650000000000000000e+02,1.513187399999999911e+02
3.660000000000000000e+02,1.516408999999999878e+02
3.670000000000000000e+02,1.519624900000000025e+02
3.680000000000000000e+02,1.522834900000000005e+02
3.690000000000000000e+02,1.526039000000000101e+02
3.700000000000000000e+02,1.529237400000000093e+02
3.710000000000000000e+02,1.532429999999999950e+02
3.720000000000000000e+02,1.535617100000000050e+02
3.730000000000000000e+02,1.538798099999999920e+02
3.740000000000000000e+02,1.541973299999999938e+02
3.750000000000000000e+02,1.545142800000000136e+02
3.760000000000000000e+02,1.548306900000000041e+02
3.770000000000000000e+02,1.551465100000000064e+02
3.780000000000000000e+02,1.554617599999999982e+02
3.790000000000000000e+02,1.557764300000000048e+02
3.800000000000000000e+02,1.560905300000000011e+02
3.810000000000000000e+02,1.564040699999999902e+02
3.820000000000000000e+02,1.567170399999999972e+02
3.830000000000000000e+02,1.570294299999999907e+02
3.840000000000000000e+02,1.573412500000000023e+02
3.850000000000000000e+02,1.576525000000000034e+02
3.860000000000000000e+02,1.579631799999999942e+02
3.870000000000000000e+02,1.582733000000000061e+02
3.880000000000000000e+02,1.585828600000000108e+02
3.890000000000000000e+02,1.588918500000000051e+02
3.900000000000000000e+02,1.592002899999999954e+02
3.910000000000000000e+02,1.595081500000000005e+02
3.920000000000000000e+02,1.598154299999999921e+02
3.930000000000000000e+02,1.601221799999999860e+02
3.940000000000000000e+02,1.604283399999999915e+02
3.950000000000000000e+02,1.607339599999999962e+02
3.960000000000000000e+02,1.610390299999999968e+02
3.970000000000000000e+02,1.613435100000000091e+02
3.980000000000000000e+02,1.616474300000000142e+02
3.990000000000000000e+02,1.619507900000000120e+02
4.000000000000000000e+02,1.622536200000000122e+02
4.010000000000000000e+02,1.625558599999999956e+02
4.020000000000000000e+02,1.628575400000000002e+02
4.030000000000000000e+02,1.631586900000000071e+02
4.040000000000000000e+02,1.634592700000000036e+02
4.050000000000000000e+02,1.637592899999999929e+02
4.060000000000000000e+02,1.640587500000000034e+02
4.070000000000000000e+02,1.643576500000000067e+02
4.080000000000000000e+02,1.646560200000000123e+02
4.090000000000000000e+02,1.649538300000000106e+02
4.100000000000000000e+02,1.652510699999999986e+02
4.110000000000000000e+02,1.655477799999999888e+02
4.120000000000000000e+02,1.658439300000000003e+02
4.130000000000000000e+02,1.661395400000000109e+02
4.140000000000000000e+02,1.664345899999999858e+02
4.150000000000000000e+02,1.667290999999999883e+02
4.160000000000000000e+02,1.670230400000000088e+02
4.170000000000000000e+02,1.673164500000000032e+02
4.180000000000000000e+02,1.676092999999999904e+02
4.190000000000000000e+02,1.679016300000000115e+02
4.200000000000000000e+02,1.681933699999999874e+02
4.210000000000000000e+02,1.684845899999999972e+02
4.220000000000000000e+02,1.687752499999999998e+02
4.230000000000000000e+02,1.690654000000000110e+02
4.240000000000000000e+02,1.693549800000000118e+02
4.250000000000000000e+02,1.696440299999999866e+02
4.260000000000000000e+02,1.699325300000000141e+02
4.270000000000000000e+02,1.702204700000000059e+02
4.280000000000000000e+02,1.705079000000000065e+02
4.290000000000000000e+02,1.707947699999999998e+02
4.300000000000000000e+02,1.710810999999999922e+02
4.310000000000000000e+02,1.713668999999999869e+02
4.320000000000000000e+02,1.716521500000000060e+02
4.330000000000000000e+02,1.719368699999999990e+02
4.340000000000000000e+02,1.722210399999999879e+02
4.350000000000000000e+02,1.725047000000000139e+02
4.360000000000000000e+02,1.727878000000000043e+02
4.370000000000000000e+02,1.730703699999999969e+02
4.380000000000000000e+02,1.733524199999999951e+02
4.390000000000000000e+02,1.736339299999999923e+02
4.400000000000000000e+02,1.739148999999999887e+02
4.410000000000000000e+02,1.741953300000000127e+02
4.420000000000000000e+02,1.744752300000000105e+02
4.430000000000000000e+02,1.747546100000000138e+02
4.440000000000000000e+02,1.750334799999999973e+02
4.450000000000000000e+02,1.753117799999999988e+02
4.460000000000000000e+02,1.755895500000000027e+02
4.470000000000000000e+02,1.758668199999999899e+02
4.480000000000000000e+02,1.761435500000000047e+02
4.490000000000000000e+02,1.764197399999999902e+02
4.500000000000000000e+02,1.766954200000000128e+02
4.510000000000000000e+02,1.769705700000000093e+02
4.520000000000000000e+02,1.772451800000000048e+02
4.530000000000000000e+02,1.775192700000000059e+02
4.540000000000000000e+02,1.777928499999999872e+02
4.550000000000000000e+02,1.780658899999999960e+02
4.560000000000000000e+02,1.783384200000000135e+02
4.570000000000000000e+02,1.786104300000000080e+02
4.580000000000000000e+02,1.788819100000000049e+02
4.590000000000000000e+02,1.791528600000000040e+02
4.600000000000000000e+02,1.794233099999999865e+02
4.610000000000000000e+02,1.796932400000000030e+02
4.620000000000000000e+02,1.799626299999999901e+02
4.630000000000000000e+02,1.802315399999999954e+02
4.640000000000000000e+02,1.804998899999999935e+02
4.650000000000000000e+02,1.807677300000000002e+02
4.660000000000000000e+02,1.810350799999999936e+02
4.670000000000000000e+02,1.813018999999999892e+02
4.680000000000000000e+02,1.815681800000000123e+02
4.690000000000000000e+02,1.818339799999999968e+02
4.700000000000000000e+02,1.820992599999999868e+02
4.710000000000000000e+02,1.823640000000000043e+02
4.720000000000000000e+02,1.826282699999999863e+02
4.730000000000000000e+02,1.828919799999999896e+02
4.740000000000000000e+02,1.831552000000000078e+02
4.750000000000000000e+02,1.834179100000000062e+02
4.760000000000000000e+02,1.836801000000000101e+02
4.770000000000000000e+02,1.839417899999999975e+02
4.780000000000000000e+02,1.842029699999999934e+02
4.790000000000000000e+02,1.844636500000000012e+02
4.800000000000000000e+02,1.847238199999999892e+02
4.810000000000000000e+02,1.849834899999999891e+02
4.820000000000000000e+02,1.852426499999999976e+02
4.830000000000000000e+02,1.855012999999999863e+02
4.840000000000000000e+02,1.857594499999999869e+02
4.850000000000000000e+02,1.860170699999999897e+02
4.860000000000000000e+02,1.862742299999999886e+02
4.870000000000000000e+02,1.865308699999999931e+02
4.880000000000000000e+02,1.867869900000000030e+02
4.890000000000000000e+02,1.870426500000000090e+02
4.900000000000000000e+02,1.872977600000000109e+02
4.910000000000000000e+02,1.875524000000000058e+02
4.920000000000000000e+02,1.878065300000000093e+02
4.930000000000000000e+02,1.880601699999999994e+02
4.940000000000000000e+02,1.883133100000000013e+02
4.950000000000000000e+02,1.885659499999999866e+02
4.960000000000000000e+02,1.888180800000000090e+02
4.970000000000000000e+02,1.890697499999999991e+02
4.980000000000000000e+02,1.893208899999999915e+02
4.990000000000000000e+02,1.895715299999999957e+02
5.000000000000000000e+02,1.898216999999999928e+02
5.010000000000000000e+02,1.900713800000000049e+02
5.020000000000000000e+02,1.903205700000000036e+02
5.030000000000000000e+02,1.905692600000000141e+02
5.040000000000000000e+02,1.908174400000000048e+02
5.050000000000000000e+02,1.910651699999999948e+02
5.060000000000000000e+02,1.913123799999999903e+02
5.070000000000000000e+02,1.915591000000000008e+02
5.080000000000000000e+02,1.918053400000000011e+02
5.090000000000000000e+02,1.920510999999999910e+02
5.100000000000000000e+02,1.922963599999999929e+02
5.110000000000000000e+02,1.925411200000000065e+02
5.120000000000000000e+02,1.927854199999999878e+02
5.130000000000000000e+02,1.930292399999999873e+02
5.140000000000000000e+02,1.932725499999999954e+02
5.150000000000000000e+02,1.935153799999999933e+02
5.160000000000000000e+02,1.937577400000000125e+02
5.170000000000000000e+02,1.939995999999999867e+02
5.180000000000000000e+02,1.942410099999999886e+02
5.190000000000000000e+02,1.944818999999999960e+02
5.200000000000000000e+02,1.947223400000000026e+02
5.210000000000000000e+02,1.949622799999999927e+02
5.220000000000000000e+02,1.952017400000000009e+02
5.230000000000000000e+02,1.954407500000000084e+02
5.240000000000000000e+02,1.956792599999999993e+02
5.250000000000000000e+02,1.959172800000000052e+02
5.260000000000000000e+02,1.961548500000000104e+02
5.270000000000000000e+02,1.963919199999999989e+02
5.280000000000000000e+02,1.966285599999999931e+02
5.290000000000000000e+02,1.968646899999999960e+02
5.300000000000000000e+02,1.971003399999999885e+02
5.310000000000000000e+02,1.973355300000000057e+02
5.320000000000000000e+02,1.975702200000000062e+02
5.330000000000000000e+02,1.978044600000000059e+02
5.340000000000000000e+02,1.980382400000000018e+02
5.350000000000000000e+02,1.982715499999999906e+02
5.360000000000000000e+02,1.985043799999999976e+02
5.370000000000000000e+02,1.987367399999999975e+02
5.380000000000000000e+02,1.989686100000000124e+02
5.390000000000000000e+02,1.992000400000000013e+02
5.400000000000000000e+02,1.994310299999999927e+02
5.410000000000000000e+02,1.996615299999999991e+02
5.420000000000000000e+02,1.998915599999999984e+02
5.430000000000000000e+02,2.001211099999999874e+02
5.440000000000000000e+02,2.003502000000000010e+02
5.450000000000000000e+02,2.005788300000000106e+02
5.460000000000000000e+02,2.008069800000000100e+02
5.470000000000000000e+02,2.010346999999999866e+02
5.480000000000000000e+02,2.012619500000000130e+02
5.490000000000000000e+02,2.014887400000000071e+02
5.500000000000000000e+02,2.017150599999999940e+02
5.510000000000000000e+02,2.019409200000000055e+02
5.520000000000000000e+02,2.021663200000000131e+02
5.530000000000000000e+02,2.023912500000000136e+02
5.540000000000000000e+02,2.026157399999999882e+02
5.550000000000000000e+02,2.028397699999999872e+02
5.560000000000000000e+02,2.030633500000000140e+02
5.570000000000000000e+02,2.032864800000000116e+02
5.580000000000000000e+02,2.035091400000000021e+02
5.590000000000000000e+02,2.037313499999999920e+02
5.600000000000000000e+02,2.039530900000000031e+02
5.610000000000000000e+02,2.041743899999999883e+02
5.620000000000000000e+02,2.043952299999999980e+02
5.630000000000000000e+02,2.046156300000000101e+02
5.640000000000000000e+02,2.048355699999999899e+02
5.650000000000000000e+02,2.050550800000000038e+02
5.660000000000000000e+02,2.052741200000000106e+02
5.670000000000000000e+02,2.054927199999999914e+02
5.680000000000000000e+02,2.057108800000000031e+02
5.690000000000000000e+02,2.059285700000000077e+02
5.700000000000000000e+02,2.061458299999999895e+02
5.710000000000000000e+02,2.063626399999999990e+02
5.720000000000000000e+02,2.065789900000000046e+02
5.730000000000000000e+02,2.067949099999999873e+02
5.740000000000000000e+02,2.070103799999999978e+02
5.750000000000000000e+02,2.072254000000000076e+02
5.760000000000000000e+02,2.074399899999999946e+02
5.770000000000000000e+02,2.076541300000000092e+02
5.780000000000000000e+02,2.078678400000000011e+02
5.790000000000000000e+02,2.080810999999999922e+02
5.800000000000000000e+02,2.082939299999999889e+02
5.810000000000000000e+02,2.085063199999999881e+02
5.820000000000000000e+02,2.087182599999999866e+02
5.830000000000000000e+02,2.089297599999999875e+02
5.840000000000000000e+02,2.091408199999999908e+02
5.850000000000000000e+02,2.093514600000000030e+02
5.860000000000000000e+02,2.095616499999999860e+02
5.870000000000000000e+02,2.097714100000000030e+02
5.880000000000000000e+02,2.099807299999999941e+02
5.890000000000000000e+02,2.101896199999999908e+02
5.900000000000000000e+02,2.103980699999999899e+02
5.910000000000000000e+02,2.106060899999999947e+02
5.920000000000000000e+02,2.108136900000000082e+02
5.930000000000000000e+02,2.110208299999999895e+02
5.940000000000000000e+02,2.112275699999999858e+02
5.950000000000000000e+02,2.114338700000000131e+02
5.960000000000000000e+02,2.116397200000000112e+02
5.970000000000000000e+02,2.118451699999999960e+02
5.980000000000000000e+02,2.120501700000000085e+02
5.990000000000000000e+02,2.122547500000000014e+02