# Time [s], Temperature [C]
1.000000000000000000e+00,2.500000000000000000e+01
2.000000000000000000e+00,2.500000000000000000e+01
3.000000000000000000e+00,2.500000000000000000e+01
4.000000000000000000e+00,2.500000000000000000e+01
5.000000000000000000e+00,2.500000000000000000e+01
6.000000000000000000e+00,2.500000599999999906e+01
7.000000000000000000e+00,2.500002100000000027e+01
8.000000000000000000e+00,2.500007199999999941e+01
9.000000000000000000e+00,2.500021600000000177e+01
1.000000000000000000e+01,2.500055300000000003e+01
1.100000000000000000e+01,2.500126500000000007e+01
1.200000000000000000e+01,2.500261899999999926e+01
1.300000000000000000e+01,2.500498199999999827e+01
1.400000000000000000e+01,2.500882100000000108e+01
1.500000000000000000e+01,2.501468500000000006e+01
1.600000000000000000e+01,2.502318599999999904e+01
1.700000000000000000e+01,2.503498099999999837e+01
1.800000000000000000e+01,2.505074899999999971e+01
1.900000000000000000e+01,2.507116699999999909e+01
2.000000000000000000e+01,2.509689699999999846e+01
2.100000000000000000e+01,2.512856499999999826e+01
2.200000000000000000e+01,2.516675899999999899e+01
2.300000000000000000e+01,2.521201500000000095e+01
2.400000000000000000e+01,2.526481599999999972e+01
2.500000000000000000e+01,2.532558999999999827e+01
2.600000000000000000e+01,2.539470100000000130e+01
2.700000000000000000e+01,2.547246900000000025e+01
2.800000000000000000e+01,2.555914699999999939e+01
2.900000000000000000e+01,2.565494500000000144e+01
3.000000000000000000e+01,2.576002700000000090e+01
3.100000000000000000e+01,2.587451199999999929e+01
3.200000000000000000e+01,2.599847000000000108e+01
3.300000000000000000e+01,2.613194500000000176e+01
3.400000000000000000e+01,2.627494599999999991e+01
3.500000000000000000e+01,2.642744599999999977e+01
3.600000000000000000e+01,2.658939700000000173e+01
3.700000000000000000e+01,2.676073500000000038e+01
3.800000000000000000e+01,2.694135299999999944e+01
3.900000000000000000e+01,2.713115099999999913e+01
4.000000000000000000e+01,2.732999200000000073e+01
4.100000000000000000e+01,2.753774500000000103e+01
4.200000000000000000e+01,2.775424599999999842e+01
4.300000000000000000e+01,2.797934899999999914e+01
4.400000000000000000e+01,2.821287699999999887e+01
4.500000000000000000e+01,2.845466199999999901e+01
4.600000000000000000e+01,2.870452299999999823e+01
4.700000000000000000e+01,2.896227100000000121e+01
4.800000000000000000e+01,2.922772399999999848e+01
4.900000000000000000e+01,2.950069399999999931e+01
5.000000000000000000e+01,2.978098299999999909e+01
5.100000000000000000e+01,3.006840899999999905e+01
5.200000000000000000e+01,3.036277799999999871e+01
5.300000000000000000e+01,3.066390799999999928e+01
5.400000000000000000e+01,3.097159800000000018e+01
5.500000000000000000e+01,3.128567899999999824e+01
5.600000000000000000e+01,3.160595500000000158e+01
5.700000000000000000e+01,3.193224000000000018e+01
5.800000000000000000e+01,3.226435899999999890e+01
5.900000000000000000e+01,3.260212299999999885e+01
6.000000000000000000e+01,3.294538099999999758e+01
6.100000000000000000e+01,3.329396100000000303e+01
6.200000000000000000e+01,3.364768999999999721e+01
6.300000000000000000e+01,3.400640899999999789e+01
6.400000000000000000e+01,3.436994599999999878e+01
6.500000000000000000e+01,3.473814399999999836e+01
6.600000000000000000e+01,3.511086300000000193e+01
6.700000000000000000e+01,3.548794199999999677e+01
6.800000000000000000e+01,3.586923199999999667e+01
6.900000000000000000e+01,3.625459699999999685e+01
7.000000000000000000e+01,3.664389400000000308e+01
7.100000000000000000e+01,3.703697600000000278e+01
7.200000000000000000e+01,3.743373499999999865e+01
7.300000000000000000e+01,3.783402999999999849e+01
7.400000000000000000e+01,3.823773599999999817e+01
7.500000000000000000e+01,3.864473300000000222e+01
7.600000000000000000e+01,3.905489000000000033e+01
7.700000000000000000e+01,3.946808999999999656e+01
7.800000000000000000e+01,3.988422800000000024e+01
7.900000000000000000e+01,4.030319599999999980e+01
8.000000000000000000e+01,4.072489199999999698e+01
8.100000000000000000e+01,4.114919700000000091e+01
8.200000000000000000e+01,4.157601499999999817e+01
8.300000000000000000e+01,4.200525700000000029e+01
8.400000000000000000e+01,4.243681699999999779e+01
8.500000000000000000e+01,4.287060499999999763e+01
8.600000000000000000e+01,4.330653000000000219e+01
8.700000000000000000e+01,4.374450300000000169e+01
8.800000000000000000e+01,4.418444099999999963e+01
8.900000000000000000e+01,4.462625500000000045e+01
9.000000000000000000e+01,4.506990100000000155e+01
9.100000000000000000e+01,4.551526599999999689e+01
9.200000000000000000e+01,4.596227999999999980e+01
9.300000000000000000e+01,4.641086200000000161e+01
9.400000000000000000e+01,4.686094299999999890e+01
9.500000000000000000e+01,4.731245400000000245e+01
9.600000000000000000e+01,4.776533500000000032e+01
9.700000000000000000e+01,4.821953200000000095e+01
9.800000000000000000e+01,4.867499500000000268e+01
9.900000000000000000e+01,4.913162200000000013e+01
1.000000000000000000e+02,4.958935499999999763e+01
1.010000000000000000e+02,5.004814100000000110e+01
1.020000000000000000e+02,5.050793500000000336e+01
1.030000000000000000e+02,5.096868899999999769e+01
1.040000000000000000e+02,5.143035900000000282e+01
1.050000000000000000e+02,5.189288700000000176e+01
1.060000000000000000e+02,5.235618600000000100e+01
1.070000000000000000e+02,5.282022500000000065e+01
1.080000000000000000e+02,5.328496599999999717e+01
1.090000000000000000e+02,5.375037799999999777e+01
1.100000000000000000e+02,5.421641499999999780e+01
1.110000000000000000e+02,5.468304100000000290e+01
1.120000000000000000e+02,5.515016200000000168e+01
1.130000000000000000e+02,5.561777099999999763e+01
1.140000000000000000e+02,5.608583500000000299e+01
1.150000000000000000e+02,5.655431399999999798e+01
1.160000000000000000e+02,5.702318600000000259e+01
1.170000000000000000e+02,5.749241599999999863e+01
1.180000000000000000e+02,5.796192200000000128e+01
1.190000000000000000e+02,5.843169799999999725e+01
1.200000000000000000e+02,5.890171800000000246e+01
1.210000000000000000e+02,5.937195200000000028e+01
1.220000000000000000e+02,5.984238799999999969e+01
1.230000000000000000e+02,6.031298400000000015e+01
1.240000000000000000e+02,6.078367599999999982e+01
1.250000000000000000e+02,6.125446300000000122e+01
1.260000000000000000e+02,6.172531899999999894e+01
1.270000000000000000e+02,6.219621699999999720e+01
1.280000000000000000e+02,6.266716799999999665e+01
1.290000000000000000e+02,6.313808800000000332e+01
1.300000000000000000e+02,6.360896699999999981e+01
1.310000000000000000e+02,6.407978799999999353e+01
1.320000000000000000e+02,6.455053700000000561e+01
1.330000000000000000e+02,6.502120999999999640e+01
1.340000000000000000e+02,6.549176799999999332e+01
1.350000000000000000e+02,6.596216599999999630e+01
1.360000000000000000e+02,6.643240400000000534e+01
1.370000000000000000e+02,6.690245799999999576e+01
1.380000000000000000e+02,6.737232199999999693e+01
1.390000000000000000e+02,6.784199499999999716e+01
1.400000000000000000e+02,6.831144700000000114e+01
1.410000000000000000e+02,6.878062400000000309e+01
1.420000000000000000e+02,6.924953499999999451e+01
1.430000000000000000e+02,6.971817000000000064e+01
1.440000000000000000e+02,7.018651599999999746e+01
1.450000000000000000e+02,7.065457899999999825e+01
1.460000000000000000e+02,7.112230700000000638e+01
1.470000000000000000e+02,7.158967599999999720e+01
1.480000000000000000e+02,7.205669399999999314e+01
1.490000000000000000e+02,7.252335399999999765e+01
1.500000000000000000e+02,7.298964700000000505e+01
1.510000000000000000e+02,7.345558200000000681e+01
1.520000000000000000e+02,7.392109700000000316e+01
1.530000000000000000e+02,7.438618499999999756e+01
1.540000000000000000e+02,7.485084500000000673e+01
1.550000000000000000e+02,7.531507899999999722e+01
1.560000000000000000e+02,7.577888500000000249e+01
1.570000000000000000e+02,7.624224900000000105e+01
1.580000000000000000e+02,7.670516200000000140e+01
1.590000000000000000e+02,7.716758000000000095e+01
1.600000000000000000e+02,7.762950899999999876e+01
1.610000000000000000e+02,7.809094199999999830e+01
1.620000000000000000e+02,7.855188800000000526e+01
1.630000000000000000e+02,7.901232899999999404e+01
1.640000000000000000e+02,7.947229799999999500e+01
1.650000000000000000e+02,7.993171700000000612e+01
1.660000000000000000e+02,8.039060200000000123e+01
1.670000000000000000e+02,8.084893800000000397e+01
1.680000000000000000e+02,8.130673199999999667e+01
1.690000000000000000e+02,8.176396900000000301e+01
1.700000000000000000e+02,8.222066499999999678e+01
1.710000000000000000e+02,8.267682600000000548e+01
1.720000000000000000e+02,8.313241600000000631e+01
1.730000000000000000e+02,8.358742499999999609e+01
1.740000000000000000e+02,8.404183999999999344e+01
1.750000000000000000e+02,8.449566699999999742e+01
1.760000000000000000e+02,8.494889799999999980e+01
1.770000000000000000e+02,8.540153499999999553e+01
1.780000000000000000e+02,8.585359200000000612e+01
1.790000000000000000e+02,8.630504600000000437e+01
1.800000000000000000e+02,8.675588999999999373e+01
1.810000000000000000e+02,8.720611599999999441e+01
1.820000000000000000e+02,8.765572400000000641e+01
1.830000000000000000e+02,8.810469799999999907e+01
1.840000000000000000e+02,8.855304700000000651e+01
1.850000000000000000e+02,8.900076300000000629e+01
1.860000000000000000e+02,8.944786799999999971e+01
1.870000000000000000e+02,8.989432499999999493e+01
1.880000000000000000e+02,9.034014100000000269e+01
1.890000000000000000e+02,9.078531599999999457e+01
1.900000000000000000e+02,9.122983600000000592e+01
1.910000000000000000e+02,9.167371400000000392e+01
1.920000000000000000e+02,9.211693599999999549e+01
1.930000000000000000e+02,9.255949400000000082e+01
1.940000000000000000e+02,9.300139599999999973e+01
1.950000000000000000e+02,9.344263499999999567e+01
1.960000000000000000e+02,9.388322399999999845e+01
1.970000000000000000e+02,9.432315099999999575e+01
1.980000000000000000e+02,9.476240500000000111e+01
1.990000000000000000e+02,9.520098099999999874e+01
2.000000000000000000e+02,9.563888500000000192e+01
2.010000000000000000e+02,9.607611799999999391e+01
2.020000000000000000e+02,9.651266499999999837e+01
2.030000000000000000e+02,9.694853999999999417e+01
2.040000000000000000e+02,9.738372800000000495e+01
2.050000000000000000e+02,9.781823699999999633e+01
2.060000000000000000e+02,9.825206799999999419e+01
2.070000000000000000e+02,9.868520399999999881e+01
2.080000000000000000e+02,9.911766099999999824e+01
2.090000000000000000e+02,9.954942300000000444e+01
2.100000000000000000e+02,9.998049899999999468e+01
2.110000000000000000e+02,1.004108800000000059e+02
2.120000000000000000e+02,1.008405800000000028e+02
2.130000000000000000e+02,1.012695800000000048e+02
2.140000000000000000e+02,1.016978799999999978e+02
2.150000000000000000e+02,1.021254899999999992e+02
2.160000000000000000e+02,1.025524000000000058e+02
2.170000000000000000e+02,1.029786100000000033e+02
2.180000000000000000e+02,1.034041299999999950e+02
2.190000000000000000e+02,1.038289400000000029e+02
2.200000000000000000e+02,1.042530699999999939e+02
2.210000000000000000e+02,1.046764799999999980e+02
2.220000000000000000e+02,1.050991899999999930e+02
2.230000000000000000e+02,1.055212099999999964e+02
2.240000000000000000e+02,1.059425099999999986e+02
2.250000000000000000e+02,1.063631100000000060e+02
2.260000000000000000e+02,1.067830000000000013e+02
2.270000000000000000e+02,1.072021900000000016e+02
2.280000000000000000e+02,1.076206799999999930e+02
2.290000000000000000e+02,1.080384499999999974e+02
2.300000000000000000e+02,1.084555200000000070e+02
2.310000000000000000e+02,1.088718800000000044e+02
2.320000000000000000e+02,1.092875300000000038e+02
2.330000000000000000e+02,1.097024799999999942e+02
2.340000000000000000e+02,1.101167099999999976e+02
2.350000000000000000e+02,1.105302400000000063e+02
2.360000000000000000e+02,1.109430499999999995e+02
2.370000000000000000e+02,1.113551700000000011e+02
2.380000000000000000e+02,1.117665800000000047e+02
2.390000000000000000e+02,1.121772799999999961e+02
2.400000000000000000e+02,1.125872800000000069e+02
2.410000000000000000e+02,1.129965600000000023e+02
2.420000000000000000e+02,1.134051400000000029e+02
2.430000000000000000e+02,1.138130000000000024e+02
2.440000000000000000e+02,1.142201500000000038e+02
2.450000000000000000e+02,1.146265899999999931e+02
2.460000000000000000e+02,1.150323300000000017e+02
2.470000000000000000e+02,1.154373599999999982e+02
2.480000000000000000e+02,1.158416799999999967e+02
2.490000000000000000e+02,1.162453100000000035e+02
2.500000000000000000e+02,1.166482100000000059e+02
2.510000000000000000e+02,1.170503999999999962e+02
2.520000000000000000e+02,1.174518800000000027e+02
2.530000000000000000e+02,1.178526499999999970e+02
2.540000000000000000e+02,1.182527099999999933e+02
2.550000000000000000e+02,1.186520600000000059e+02
2.560000000000000000e+02,1.190507000000000062e+02
2.570000000000000000e+02,1.194486299999999943e+02
2.580000000000000000e+02,1.198458600000000018e+02
2.590000000000000000e+02,1.202423699999999940e+02
2.600000000000000000e+02,1.206381800000000055e+02
2.610000000000000000e+02,1.210332999999999970e+02
2.620000000000000000e+02,1.214277100000000047e+02
2.630000000000000000e+02,1.218214200000000034e+02
2.640000000000000000e+02,1.222144200000000041e+02
2.650000000000000000e+02,1.226067199999999957e+02
2.660000000000000000e+02,1.229983100000000036e+02
2.670000000000000000e+02,1.233892100000000056e+02
2.680000000000000000e+02,1.237793999999999954e+02
2.690000000000000000e+02,1.241688800000000015e+02
2.700000000000000000e+02,1.245576599999999985e+02
2.710000000000000000e+02,1.249457299999999975e+02
2.720000000000000000e+02,1.253331100000000049e+02
2.730000000000000000e+02,1.257197599999999937e+02
2.740000000000000000e+02,1.261057299999999941e+02
2.750000000000000000e+02,1.264909799999999933e+02
2.760000000000000000e+02,1.268755500000000040e+02
2.770000000000000000e+02,1.272594100000000026e+02
2.780000000000000000e+02,1.276425799999999953e+02
2.790000000000000000e+02,1.280250499999999931e+02
2.800000000000000000e+02,1.284068300000000136e+02
2.810000000000000000e+02,1.287878900000000044e+02
2.820000000000000000e+02,1.291682600000000036e+02
2.830000000000000000e+02,1.295479300000000080e+02
2.840000000000000000e+02,1.299268999999999892e+02
2.850000000000000000e+02,1.303051800000000071e+02
2.860000000000000000e+02,1.306827499999999986e+02
2.870000000000000000e+02,1.310596500000000049e+02
2.880000000000000000e+02,1.314358400000000131e+02
2.890000000000000000e+02,1.318113400000000013e+02
2.900000000000000000e+02,1.321861399999999946e+02
2.910000000000000000e+02,1.325602700000000027e+02
2.920000000000000000e+02,1.329336999999999875e+02
2.930000000000000000e+02,1.333064400000000091e+02
2.940000000000000000e+02,1.336785000000000139e+02
2.950000000000000000e+02,1.340498699999999985e+02
2.960000000000000000e+02,1.344205300000000136e+02
2.970000000000000000e+02,1.347905100000000118e+02
2.980000000000000000e+02,1.351597899999999868e+02
2.990000000000000000e+02,1.355283799999999985e+02
3.000000000000000000e+02,1.358962999999999965e+02
3.010000000000000000e+02,1.362635199999999998e+02
3.020000000000000000e+02,1.366300699999999892e+02
3.030000000000000000e+02,1.369959100000000092e+02
3.040000000000000000e+02,1.373610999999999933e+02
3.050000000000000000e+02,1.377255900000000111e+02
3.060000000000000000e+02,1.380894000000000119e+02
3.070000000000000000e+02,1.384525299999999959e+02
3.080000000000000000e+02,1.388149699999999882e+02
3.090000000000000000e+02,1.391767299999999921e+02
3.100000000000000000e+02,1.395378100000000074e+02
3.110000000000000000e+02,1.398982100000000059e+02
3.120000000000000000e+02,1.402579299999999876e+02
3.130000000000000000e+02,1.406169700000000091e+02
3.140000000000000000e+02,1.409753399999999885e+02
3.150000000000000000e+02,1.413330200000000048e+02
3.160000000000000000e+02,1.416900500000000136e+02
3.170000000000000000e+02,1.420463900000000024e+02
3.180000000000000000e+02,1.424020500000000027e+02
3.190000000000000000e+02,1.427570299999999861e+02
3.200000000000000000e+02,1.431113599999999906e+02
3.210000000000000000e+02,1.434650100000000066e+02
3.220000000000000000e+02,1.438179599999999994e+02
3.230000000000000000e+02,1.441702600000000132e+02
3.240000000000000000e+02,1.445218999999999880e+02
3.250000000000000000e+02,1.448728600000000029e+02
3.260000000000000000e+02,1.452231600000000071e+02
3.270000000000000000e+02,1.455727799999999945e+02
3.280000000000000000e+02,1.459217500000000030e+02
3.290000000000000000e+02,1.462700299999999913e+02
3.300000000000000000e+02,1.466176499999999976e+02
3.310000000000000000e+02,1.469645999999999901e+02
3.320000000000000000e+02,1.473109000000000037e+02
3.330000000000000000e+02,1.476565400000000068e+02
3.340000000000000000e+02,1.480015099999999961e+02
3.350000000000000000e+02,1.483458100000000002e+02
3.360000000000000000e+02,1.486894499999999937e+02
3.370000000000000000e+02,1.490324200000000019e+02
3.380000000000000000e+02,1.493747400000000027e+02
3.390000000000000000e+02,1.497164199999999994e+02
3.400000000000000000e+02,1.500574200000000076e+02
3.410000000000000000e+02,1.503977700000000084e+02
3.420000000000000000e+02,1.507374599999999987e+02
3.430000000000000000e+02,1.510764900000000068e+02
3.440000000000000000e+02,1.514148600000000044e+02
3.450000000000000000e+02,1.517525799999999947e+02
3.460000000000000000e+02,1.520896500000000060e+02
3.470000000000000000e+02,1.524260700000000099e+02
3.480000000000000000e+02,1.527618400000000065e+02
3.490000000000000000e+02,1.530969499999999925e+02
3.500000000000000000e+02,1.534313999999999965e+02
3.510000000000000000e+02,1.537652099999999962e+02
3.520000000000000000e+02,1.540983699999999885e+02
3.530000000000000000e+02,1.544308900000000051e+02
3.540000000000000000e+02,1.547627699999999891e+02
3.550000000000000000e+02,1.550939799999999877e+02
3.560000000000000000e+02,1.554245500000000106e+02
3.570000000000000000e+02,1.557544699999999978e+02
3.580000000000000000e+02,1.560837699999999870e+02
3.590000000000000000e+02,1.564124099999999942e+02
3.600000000000000000e+02,1.567403999999999940e+02
3.610000000000000000e+02,1.570677499999999895e+02
3.620000000000000000e+02,1.573944500000000062e+02
3.630000000000000000e+02,1.577205399999999997e+02
3.640000000000000000e+02,1.580459700000000112e+02
3.650000000000000000e+02,1.583707599999999900e+02
3.660000000000000000e+02,1.586949199999999962e+02
3.670000000000000000e+02,1.590184199999999919e+02
3.680000000000000000e+02,1.593413099999999929e+02
3.690000000000000000e+02,1.596635599999999897e+02
3.700000000000000000e+02,1.599851700000000108e+02
3.710000000000000000e+02,1.603061399999999992e+02
3.720000000000000000e+02,1.606264600000000087e+02
3.730000000000000000e+02,1.609461799999999982e+02
3.740000000000000000e+02,1.612652600000000120e+02
3.750000000000000000e+02,1.615837099999999964e+02
3.760000000000000000e+02,1.619015400000000113e+02
3.770000000000000000e+02,1.622187000000000126e+02
3.780000000000000000e+02,1.625352800000000002e+02
3.790000000000000000e+02,1.628512000000000057e+02
3.800000000000000000e+02,1.631665000000000134e+02
3.810000000000000000e+02,1.634811899999999980e+02
3.820000000000000000e+02,1.637952300000000037e+02
3.830000000000000000e+02,1.641086699999999894e+02
3.840000000000000000e+02,1.644214800000000025e+02
3.850000000000000000e+02,1.647336599999999862e+02
3.860000000000000000e+02,1.650452099999999973e+02
3.870000000000000000e+02,1.653561599999999885e+02
3.880000000000000000e+02,1.656664700000000039e+02
3.890000000000000000e+02,1.659761699999999962e+02
3.900000000000000000e+02,1.662852499999999907e+02
3.910000000000000000e+02,1.665937000000000126e+02
3.920000000000000000e+02,1.669015499999999861e+02
3.930000000000000000e+02,1.672087899999999934e+02
3.940000000000000000e+02,1.675153999999999996e+02
3.950000000000000000e+02,1.678213800000000049e+02
3.960000000000000000e+02,1.681267699999999934e+02
3.970000000000000000e+02,1.684315300000000093e+02
3.980000000000000000e+02,1.687357000000000085e+02
3.990000000000000000e+02,1.690392500000000098e+02
4.000000000000000000e+02,1.693421800000000133e+02
4.010000000000000000e+02,1.696444999999999936e+02
4.020000000000000000e+02,1.699462100000000078e+02
4.030000000000000000e+02,1.702473099999999988e+02
4.040000000000000000e+02,1.705478200000000015e+02
4.050000000000000000e+02,1.708477200000000096e+02
4.060000000000000000e+02,1.711469999999999914e+02
4.070000000000000000e+02,1.714456900000000132e+02
4.080000000000000000e+02,1.717437600000000089e+02
4.090000000000000000e+02,1.720412399999999877e+02
4.100000000000000000e+02,1.723380999999999972e+02
4.110000000000000000e+02,1.726343799999999931e+02
4.120000000000000000e+02,1.729300499999999943e+02
4.130000000000000000e+02,1.732251300000000072e+02
4.140000000000000000e+02,1.735195899999999938e+02
4.150000000000000000e+02,1.738134599999999921e+02
4.160000000000000000e+02,1.741067400000000021e+02
4.170000000000000000e+02,1.743994099999999889e+02
4.180000000000000000e+02,1.746914999999999907e+02
4.190000000000000000e+02,1.749829900000000009e+02
4.200000000000000000e+02,1.752738999999999976e+02
4.210000000000000000e+02,1.755641899999999964e+02
4.220000000000000000e+02,1.758539100000000133e+02
4.230000000000000000e+02,1.761430200000000070e+02
4.240000000000000000e+02,1.764315499999999872e+02
4.250000000000000000e+02,1.767194800000000043e+02
4.260000000000000000e+02,1.770068200000000047e+02
4.270000000000000000e+02,1.772935799999999915e+02
4.280000000000000000e+02,1.775797399999999868e+02
4.290000000000000000e+02,1.778653400000000033e+02
4.300000000000000000e+02,1.781503299999999967e+02
4.310000000000000000e+02,1.784347400000000050e+02
4.320000000000000000e+02,1.787185800000000029e+02
4.330000000000000000e+02,1.790018200000000093e+02
4.340000000000000000e+02,1.792844800000000021e+02
4.350000000000000000e+02,1.795665600000000097e+02
4.360000000000000000e+02,1.798480700000000070e+02
4.370000000000000000e+02,1.801289800000000128e+02
4.380000000000000000e+02,1.804093200000000081e+02
4.390000000000000000e+02,1.806890899999999931e+02
4.400000000000000000e+02,1.809682599999999866e+02
4.410000000000000000e+02,1.812468700000000013e+02
4.420000000000000000e+02,1.815249000000000024e+02
4.430000000000000000e+02,1.818023499999999899e+02
4.440000000000000000e+02,1.820792399999999986e+02
4.450000000000000000e+02,1.823555499999999938e+02
4.460000000000000000e+02,1.826312700000000007e+02
4.470000000000000000e+02,1.829064500000000066e+02
4.480000000000000000e+02,1.831810299999999927e+02
4.490000000000000000e+02,1.834550600000000031e+02
4.500000000000000000e+02,1.837285200000000032e+02
4.510000000000000000e+02,1.840013999999999896e+02
4.520000000000000000e+02,1.842737300000000005e+02
4.530000000000000000e+02,1.845454699999999946e+02
4.540000000000000000e+02,1.848166500000000099e+02
4.550000000000000000e+02,1.850872799999999927e+02
4.560000000000000000e+02,1.853573299999999904e+02
4.570000000000000000e+02,1.856268200000000093e+02
4.580000000000000000e+02,1.858957499999999925e+02
4.590000000000000000e+02,1.861641099999999938e+02
4.600000000000000000e+02,1.864319199999999910e+02
4.610000000000000000e+02,1.866991700000000094e+02
4.620000000000000000e+02,1.869658499999999890e+02
4.630000000000000000e+02,1.872319799999999930e+02
4.640000000000000000e+02,1.874975599999999929e+02
4.650000000000000000e+02,1.877625600000000077e+02
4.660000000000000000e+02,1.880270099999999900e+02
4.670000000000000000e+02,1.882909199999999998e+02
4.680000000000000000e+02,1.885542599999999993e+02
4.690000000000000000e+02,1.888170499999999947e+02
4.700000000000000000e+02,1.890792800000000113e+02
4.710000000000000000e+02,1.893409699999999987e+02
4.720000000000000000e+02,1.896021100000000104e+02
4.730000000000000000e+02,1.898626999999999896e+02
4.740000000000000000e+02,1.901227299999999900e+02
4.750000000000000000e+02,1.903822199999999896e+02
4.760000000000000000e+02,1.906411600000000135e+02
4.770000000000000000e+02,1.908995500000000050e+02
4.780000000000000000e+02,1.911573899999999924e+02
4.790000000000000000e+02,1.914146900000000073e+02
4.800000000000000000e+02,1.916714499999999930e+02
4.810000000000000000e+02,1.919276600000000030e+02
4.820000000000000000e+02,1.921833300000000122e+02
4.830000000000000000e+02,1.924384599999999921e+02
4.840000000000000000e+02,1.926930399999999963e+02
4.850000000000000000e+02,1.929470799999999997e+02
4.860000000000000000e+02,1.932005900000000054e+02
4.870000000000000000e+02,1.934535700000000134e+02
4.880000000000000000e+02,1.937059800000000109e+02
4.890000000000000000e+02,1.939578700000000140e+02
4.900000000000000000e+02,1.942092299999999909e+02
4.910000000000000000e+02,1.944600499999999954e+02
4.920000000000000000e+02,1.947103400000000022e+02
4.930000000000000000e+02,1.949600800000000049e+02
4.940000000000000000e+02,1.952093000000000131e+02
4.950000000000000000e+02,1.954579899999999952e+02
4.960000000000000000e+02,1.957061300000000017e+02
4.970000000000000000e+02,1.959537500000000136e+02
4.980000000000000000e+02,1.962008500000000026e+02
4.990000000000000000e+02,1.964473999999999876e+02
5.000000000000000000e+02,1.966934500000000128e+02
5.010000000000000000e+02,1.969389500000000055e+02
5.020000000000000000e+02,1.971839300000000037e+02
5.030000000000000000e+02,1.974283900000000074e+02
5.040000000000000000e+02,1.976723299999999881e+02
5.050000000000000000e+02,1.979157399999999996e+02
5.060000000000000000e+02,1.981586200000000133e+02
5.070000000000000000e+02,1.984009700000000009e+02
5.080000000000000000e+02,1.986428200000000004e+02
5.090000000000000000e+02,1.988841400000000021e+02
5.100000000000000000e+02,1.991249400000000094e+02
5.110000000000000000e+02,1.993651999999999873e+02
5.120000000000000000e+02,1.996049700000000087e+02
5.130000000000000000e+02,1.998442200000000071e+02
5.140000000000000000e+02,2.000829500000000110e+02
5.150000000000000000e+02,2.003211499999999887e+02
5.160000000000000000e+02,2.005588400000000036e+02
5.170000000000000000e+02,2.007960199999999986e+02
5.180000000000000000e+02,2.010327000000000055e+02
5.190000000000000000e+02,2.012688400000000115e+02
5.200000000000000000e+02,2.015044900000000041e+02
5.210000000000000000e+02,2.017396099999999990e+02
5.220000000000000000e+02,2.019742400000000089e+02
5.230000000000000000e+02,2.022083399999999926e+02
5.240000000000000000e+02,2.024419399999999882e+02
5.250000000000000000e+02,2.026750499999999988e+02
5.260000000000000000e+02,2.029076200000000085e+02
5.270000000000000000e+02,2.031397100000000080e+02
5.280000000000000000e+02,2.033712800000000129e+02
5.290000000000000000e+02,2.036023600000000044e+02
5.300000000000000000e+02,2.038329200000000014e+02
5.310000000000000000e+02,2.040629700000000071e+02
5.320000000000000000e+02,2.042925400000000025e+02
5.330000000000000000e+02,2.045216100000000097e+02
5.340000000000000000e+02,2.047501699999999971e+02
5.350000000000000000e+02,2.049782099999999900e+02
5.360000000000000000e+02,2.052057800000000043e+02
5.370000000000000000e+02,2.054328500000000020e+02
5.380000000000000000e+02,2.056593900000000019e+02
5.390000000000000000e+02,2.058854699999999980e+02
5.400000000000000000e+02,2.061110400000000027e+02
5.410000000000000000e+02,2.063361199999999940e+02
5.420000000000000000e+02,2.065606999999999971e+02
5.430000000000000000e+02,2.067847899999999868e+02
5.440000000000000000e+02,2.070083799999999883e+02
5.450000000000000000e+02,2.072314900000000080e+02
5.460000000000000000e+02,2.074541000000000111e+02
5.470000000000000000e+02,2.076762200000000007e+02
5.480000000000000000e+02,2.078978700000000117e+02
5.490000000000000000e+02,2.081189999999999998e+02
5.500000000000000000e+02,2.083396799999999871e+02
5.510000000000000000e+02,2.085598400000000083e+02
5.520000000000000000e+02,2.087795299999999941e+02
5.530000000000000000e+02,2.089987199999999916e+02
5.540000000000000000e+02,2.092174400000000105e+02
5.550000000000000000e+02,2.094356799999999907e+02
5.560000000000000000e+02,2.096534299999999860e+02
5.570000000000000000e+02,2.098706999999999994e+02
5.580000000000000000e+02,2.100874799999999993e+02
5.590000000000000000e+02,2.103037899999999922e+02
5.600000000000000000e+02,2.105196100000000001e+02
5.610000000000000000e+02,2.107349499999999978e+02
5.620000000000000000e+02,2.109498299999999915e+02
5.630000000000000000e+02,2.111642200000000003e+02
5.640000000000000000e+02,2.113781299999999987e+02
5.650000000000000000e+02,2.115915699999999902e+02
5.660000000000000000e+02,2.118045299999999997e+02
5.670000000000000000e+02,2.120170300000000054e+02
5.680000000000000000e+02,2.122290500000000009e+02
5.690000000000000000e+02,2.124405999999999892e+02
5.700000000000000000e+02,2.126516699999999958e+02
5.710000000000000000e+02,2.128622699999999952e+02
5.720000000000000000e+02,2.130724199999999939e+02
5.730000000000000000e+02,2.132820700000000045e+02
5.740000000000000000e+02,2.134912699999999859e+02
5.750000000000000000e+02,2.136999999999999886e+02
5.760000000000000000e+02,2.139082600000000127e+02
5.770000000000000000e+02,2.141160600000000045e+02
5.780000000000000000e+02,2.143233899999999892e+02
5.790000000000000000e+02,2.145302599999999984e+02
5.800000000000000000e+02,2.147366600000000005e+02
5.810000000000000000e+02,2.149426100000000019e+02
5.820000000000000000e+02,2.151480899999999963e+02
5.830000000000000000e+02,2.153531000000000120e+02
5.840000000000000000e+02,2.155576800000000048e+02
5.850000000000000000e+02,2.157617600000000095e+02
5.860000000000000000e+02,2.159654099999999914e+02
5.870000000000000000e+02,2.161685899999999947e+02
5.880000000000000000e+02,2.163713199999999972e+02
5.890000000000000000e+02,2.165735899999999958e+02
5.900000000000000000e+02,2.167754199999999969e+02
5.910000000000000000e+02,2.169767799999999909e+02
5.920000000000000000e+02,2.171776900000000126e+02
5.930000000000000000e+02,2.173781299999999987e+02
5.940000000000000000e+02,2.175781399999999906e+02
5.950000000000000000e+02,2.177776800000000037e+02
5.960000000000000000e+02,2.179767899999999941e+02
5.970000000000000000e+02,2.181754300000000057e+02
5.980000000000000000e+02,2.183736399999999946e+02
5.990000000000000000e+02,2.185713800000000049e+02