# Time [s], Mass [Kg]
1.000000000000000000e+00,1.000000000000000000e+00
2.000000000000000000e+00,1.000000000000000000e+00
3.000000000000000000e+00,1.000000000000000000e+00
4.000000000000000000e+00,1.000000000000000000e+00
5.000000000000000000e+00,1.000000000000000000e+00
6.000000000000000000e+00,1.000000000000000000e+00
7.000000000000000000e+00,9.999999400000000316e-01
8.000000000000000000e+00,9.999997600000000153e-01
9.000000000000000000e+00,9.999988100000000157e-01
1.000000000000000000e+01,9.999949900000000280e-01
1.100000000000000000e+01,9.999821800000000538e-01
1.200000000000000000e+01,9.999477300000000346e-01
1.300000000000000000e+01,9.998685699999999565e-01
1.400000000000000000e+01,9.997066300000000405e-01
1.500000000000000000e+01,9.994066999999999812e-01
1.600000000000000000e+01,9.989006499999999455e-01
1.700000000000000000e+01,9.981223299999999465e-01
1.800000000000000000e+01,9.970311499999999771e-01
1.900000000000000000e+01,9.956312200000000390e-01
2.000000000000000000e+01,9.939755799999999697e-01
2.100000000000000000e+01,9.921569199999999977e-01
2.200000000000000000e+01,9.902831300000000114e-01
2.300000000000000000e+01,9.884758000000000155e-01
2.400000000000000000e+01,9.868584299999999532e-01
2.500000000000000000e+01,9.855217899999999531e-01
2.600000000000000000e+01,9.844770999999999939e-01
2.700000000000000000e+01,9.835661100000000490e-01
2.800000000000000000e+01,9.824428600000000289e-01
2.900000000000000000e+01,9.810782700000000300e-01
3.000000000000000000e+01,9.795438100000000148e-01
3.100000000000000000e+01,9.779136200000000390e-01
3.200000000000000000e+01,9.762691900000000089e-01
3.300000000000000000e+01,9.746838199999999786e-01
3.400000000000000000e+01,9.732229100000000521e-01
3.500000000000000000e+01,9.719287800000000477e-01
3.600000000000000000e+01,9.708066600000000435e-01
3.700000000000000000e+01,9.698025599999999802e-01
3.800000000000000000e+01,9.688067999999999680e-01
3.900000000000000000e+01,9.677073400000000269e-01
4.000000000000000000e+01,9.664694700000000527e-01
4.100000000000000000e+01,9.651299700000000037e-01
4.200000000000000000e+01,9.637335500000000499e-01
4.300000000000000000e+01,9.623252700000000104e-01
4.400000000000000000e+01,9.609476300000000526e-01
4.500000000000000000e+01,9.596368699999999752e-01
4.600000000000000000e+01,9.584181299999999792e-01
4.700000000000000000e+01,9.572998900000000422e-01
4.800000000000000000e+01,9.562681299999999940e-01
4.900000000000000000e+01,9.552852499999999747e-01
5.000000000000000000e+01,9.542987299999999840e-01
5.100000000000000000e+01,9.532616699999999499e-01
5.200000000000000000e+01,9.521528500000000506e-01
5.300000000000000000e+01,9.509804200000000485e-01
5.400000000000000000e+01,9.497672900000000418e-01
5.500000000000000000e+01,9.485392599999999952e-01
5.600000000000000000e+01,9.473208800000000318e-01
5.700000000000000000e+01,9.461332599999999760e-01
5.800000000000000000e+01,9.449927200000000083e-01
5.900000000000000000e+01,9.439085699999999468e-01
6.000000000000000000e+01,9.428804499999999811e-01
6.100000000000000000e+01,9.418978700000000259e-01
6.200000000000000000e+01,9.409405600000000369e-01
6.300000000000000000e+01,9.399833100000000163e-01
6.400000000000000000e+01,9.390026299999999493e-01
6.500000000000000000e+01,9.379842299999999744e-01
6.600000000000000000e+01,9.369261899999999921e-01
6.700000000000000000e+01,9.358369699999999902e-01
6.800000000000000000e+01,9.347301700000000269e-01
6.900000000000000000e+01,9.336203899999999667e-01
7.000000000000000000e+01,9.325212200000000395e-01
7.100000000000000000e+01,9.314437500000000147e-01
7.200000000000000000e+01,9.303956599999999577e-01
7.300000000000000000e+01,9.293803000000000480e-01
7.400000000000000000e+01,9.283959899999999488e-01
7.500000000000000000e+01,9.274358200000000219e-01
7.600000000000000000e+01,9.264885800000000060e-01
7.700000000000000000e+01,9.255408000000000523e-01
7.800000000000000000e+01,9.245796200000000464e-01
7.900000000000000000e+01,9.235961999999999783e-01
8.000000000000000000e+01,9.225870400000000249e-01
8.100000000000000000e+01,9.215546799999999594e-01
8.200000000000000000e+01,9.205059399999999670e-01
8.300000000000000000e+01,9.194490899999999689e-01
8.400000000000000000e+01,9.183929600000000359e-01
8.500000000000000000e+01,9.173453499999999483e-01
8.600000000000000000e+01,9.163119199999999465e-01
8.700000000000000000e+01,9.152957800000000033e-01
8.800000000000000000e+01,9.142973399999999584e-01
8.900000000000000000e+01,9.133138100000000037e-01
9.000000000000000000e+01,9.123395100000000202e-01
9.100000000000000000e+01,9.113670600000000066e-01
9.200000000000000000e+01,9.103882899999999889e-01
9.300000000000000000e+01,9.093961699999999482e-01
9.400000000000000000e+01,9.083859899999999765e-01
9.500000000000000000e+01,9.073565000000000103e-01
9.600000000000000000e+01,9.063096600000000169e-01
9.700000000000000000e+01,9.052498300000000331e-01
9.800000000000000000e+01,9.041824899999999499e-01
9.900000000000000000e+01,9.031135399999999924e-01
1.000000000000000000e+02,9.020477500000000370e-01
1.010000000000000000e+02,9.009883400000000542e-01
1.020000000000000000e+02,8.999369099999999788e-01
1.030000000000000000e+02,8.988925199999999727e-01
1.040000000000000000e+02,8.978524199999999844e-01
1.050000000000000000e+02,8.968124400000000440e-01
1.060000000000000000e+02,8.957672100000000359e-01
1.070000000000000000e+02,8.947117300000000384e-01
1.080000000000000000e+02,8.936416499999999541e-01
1.090000000000000000e+02,8.925547600000000026e-01
1.100000000000000000e+02,8.914508799999999455e-01
1.110000000000000000e+02,8.903319200000000544e-01
1.120000000000000000e+02,8.892010999999999665e-01
1.130000000000000000e+02,8.880622999999999712e-01
1.140000000000000000e+02,8.869192000000000187e-01
1.150000000000000000e+02,8.857743700000000331e-01
1.160000000000000000e+02,8.846292500000000336e-01
1.170000000000000000e+02,8.834835899999999853e-01
1.180000000000000000e+02,8.823354799999999498e-01
1.190000000000000000e+02,8.811819600000000419e-01
1.200000000000000000e+02,8.800193099999999991e-01
1.210000000000000000e+02,8.788438400000000428e-01
1.220000000000000000e+02,8.776525899999999547e-01
1.230000000000000000e+02,8.764435600000000104e-01
1.240000000000000000e+02,8.752165400000000428e-01
1.250000000000000000e+02,8.739726500000000176e-01
1.260000000000000000e+02,8.727138599999999524e-01
1.270000000000000000e+02,8.714427399999999935e-01
1.280000000000000000e+02,8.701614699999999925e-01
1.290000000000000000e+02,8.688714499999999896e-01
1.300000000000000000e+02,8.675727800000000434e-01
1.310000000000000000e+02,8.662644600000000139e-01
1.320000000000000000e+02,8.649444600000000261e-01
1.330000000000000000e+02,8.636099699999999491e-01
1.340000000000000000e+02,8.622580199999999584e-01
1.350000000000000000e+02,8.608860400000000190e-01
1.360000000000000000e+02,8.594923599999999553e-01
1.370000000000000000e+02,8.580762699999999743e-01
1.380000000000000000e+02,8.566381299999999976e-01
1.390000000000000000e+02,8.551789499999999933e-01
1.400000000000000000e+02,8.537002200000000096e-01
1.410000000000000000e+02,8.522029500000000146e-01
1.420000000000000000e+02,8.506876199999999777e-01
1.430000000000000000e+02,8.491538199999999481e-01
1.440000000000000000e+02,8.476002200000000153e-01
1.450000000000000000e+02,8.460251100000000246e-01
1.460000000000000000e+02,8.444263300000000028e-01
1.470000000000000000e+02,8.428020499999999693e-01
1.480000000000000000e+02,8.411509400000000136e-01
1.490000000000000000e+02,8.394725299999999946e-01
1.500000000000000000e+02,8.377672400000000241e-01
1.510000000000000000e+02,8.360359699999999616e-01
1.520000000000000000e+02,8.342799499999999924e-01
1.530000000000000000e+02,8.325003399999999498e-01
1.540000000000000000e+02,8.306981300000000346e-01
1.550000000000000000e+02,8.288735200000000303e-01
1.560000000000000000e+02,8.270266099999999954e-01
1.570000000000000000e+02,8.251572299999999638e-01
1.580000000000000000e+02,8.232651899999999801e-01
1.590000000000000000e+02,8.213508699999999552e-01
1.600000000000000000e+02,8.194152099999999495e-01
1.610000000000000000e+02,8.174597599999999797e-01
1.620000000000000000e+02,8.154864899999999528e-01
1.630000000000000000e+02,8.134977799999999482e-01
1.640000000000000000e+02,8.114960799999999530e-01
1.650000000000000000e+02,8.094832899999999665e-01
1.660000000000000000e+02,8.074615000000000542e-01
1.670000000000000000e+02,8.054322000000000426e-01
1.680000000000000000e+02,8.033968799999999799e-01
1.690000000000000000e+02,8.013571499999999626e-01
1.700000000000000000e+02,7.993146800000000551e-01
1.710000000000000000e+02,7.972714300000000032e-01
1.720000000000000000e+02,7.952296100000000312e-01
1.730000000000000000e+02,7.931917299999999837e-01
1.740000000000000000e+02,7.911599900000000352e-01
1.750000000000000000e+02,7.891365299999999472e-01
1.760000000000000000e+02,7.871232599999999913e-01
1.770000000000000000e+02,7.851217999999999808e-01
1.780000000000000000e+02,7.831335699999999456e-01
1.790000000000000000e+02,7.811599999999999655e-01
1.800000000000000000e+02,7.792024600000000412e-01
1.810000000000000000e+02,7.772623899999999697e-01
1.820000000000000000e+02,7.753413900000000192e-01
1.830000000000000000e+02,7.734411399999999714e-01
1.840000000000000000e+02,7.715631099999999964e-01
1.850000000000000000e+02,7.697087500000000526e-01
1.860000000000000000e+02,7.678794300000000295e-01
1.870000000000000000e+02,7.660764500000000199e-01
1.880000000000000000e+02,7.643009400000000397e-01
1.890000000000000000e+02,7.625542899999999680e-01
1.900000000000000000e+02,7.608377899999999583e-01
1.910000000000000000e+02,7.591528899999999691e-01
1.920000000000000000e+02,7.575011299999999670e-01
1.930000000000000000e+02,7.558842300000000458e-01
1.940000000000000000e+02,7.543039299999999558e-01
1.950000000000000000e+02,7.527620800000000001e-01
1.960000000000000000e+02,7.512604600000000188e-01
1.970000000000000000e+02,7.498012200000000460e-01
1.980000000000000000e+02,7.483864999999999545e-01
1.990000000000000000e+02,7.470186399999999560e-01
2.000000000000000000e+02,7.457002999999999826e-01
2.010000000000000000e+02,7.444343599999999617e-01
2.020000000000000000e+02,7.432238500000000192e-01
2.030000000000000000e+02,7.420721700000000309e-01
2.040000000000000000e+02,7.409827100000000444e-01
2.050000000000000000e+02,7.399592400000000181e-01
2.060000000000000000e+02,7.390056299999999689e-01
2.070000000000000000e+02,7.381259799999999593e-01
2.080000000000000000e+02,7.373241799999999957e-01
2.090000000000000000e+02,7.366041500000000131e-01
2.100000000000000000e+02,7.359693099999999877e-01
2.110000000000000000e+02,7.354221899999999756e-01
2.120000000000000000e+02,7.349640699999999693e-01
2.130000000000000000e+02,7.345942300000000147e-01
2.140000000000000000e+02,7.343093200000000431e-01
2.150000000000000000e+02,7.341027300000000366e-01
2.160000000000000000e+02,7.339642600000000350e-01
2.170000000000000000e+02,7.338805800000000046e-01
2.180000000000000000e+02,7.338364699999999630e-01
2.190000000000000000e+02,7.338170999999999999e-01
2.200000000000000000e+02,7.338104800000000427e-01
2.210000000000000000e+02,7.338089300000000259e-01
2.220000000000000000e+02,7.338086999999999804e-01
2.230000000000000000e+02,7.338086999999999804e-01
2.240000000000000000e+02,7.338086999999999804e-01
2.250000000000000000e+02,7.338086999999999804e-01
2.260000000000000000e+02,7.338086999999999804e-01
2.270000000000000000e+02,7.338086999999999804e-01
2.280000000000000000e+02,7.338086999999999804e-01
2.290000000000000000e+02,7.338086999999999804e-01
2.300000000000000000e+02,7.338086999999999804e-01
2.310000000000000000e+02,7.338086999999999804e-01
2.320000000000000000e+02,7.338086999999999804e-01
2.330000000000000000e+02,7.338086999999999804e-01
2.340000000000000000e+02,7.338086999999999804e-01
2.350000000000000000e+02,7.338086999999999804e-01
2.360000000000000000e+02,7.338086999999999804e-01
2.370000000000000000e+02,7.338086999999999804e-01
2.380000000000000000e+02,7.338086999999999804e-01
2.390000000000000000e+02,7.338086999999999804e-01
2.400000000000000000e+02,7.338086999999999804e-01
2.410000000000000000e+02,7.338086999999999804e-01
2.420000000000000000e+02,7.338086999999999804e-01
2.430000000000000000e+02,7.338086999999999804e-01
2.440000000000000000e+02,7.338086999999999804e-01
2.450000000000000000e+02,7.338086999999999804e-01
2.460000000000000000e+02,7.338086999999999804e-01
2.470000000000000000e+02,7.338086999999999804e-01
2.480000000000000000e+02,7.338086999999999804e-01
2.490000000000000000e+02,7.338086999999999804e-01
2.500000000000000000e+02,7.338086999999999804e-01
2.510000000000000000e+02,7.338086999999999804e-01
2.520000000000000000e+02,7.338086999999999804e-01
2.530000000000000000e+02,7.338086999999999804e-01
2.540000000000000000e+02,7.338086999999999804e-01
2.550000000000000000e+02,7.338086999999999804e-01
2.560000000000000000e+02,7.338086999999999804e-01
2.570000000000000000e+02,7.338086999999999804e-01
2.580000000000000000e+02,7.338086999999999804e-01
2.590000000000000000e+02,7.338086999999999804e-01
2.600000000000000000e+02,7.338086999999999804e-01
2.610000000000000000e+02,7.338086999999999804e-01
2.620000000000000000e+02,7.338086999999999804e-01
2.630000000000000000e+02,7.338086999999999804e-01
2.640000000000000000e+02,7.338086999999999804e-01
2.650000000000000000e+02,7.338086999999999804e-01
2.660000000000000000e+02,7.338086999999999804e-01
2.670000000000000000e+02,7.338086999999999804e-01
2.680000000000000000e+02,7.338086999999999804e-01
2.690000000000000000e+02,7.338086999999999804e-01
2.700000000000000000e+02,7.338086999999999804e-01
2.710000000000000000e+02,7.338086999999999804e-01
2.720000000000000000e+02,7.338086999999999804e-01
2.730000000000000000e+02,7.338086999999999804e-01
2.740000000000000000e+02,7.338086999999999804e-01
2.750000000000000000e+02,7.338086999999999804e-01
2.760000000000000000e+02,7.338086999999999804e-01
2.770000000000000000e+02,7.338086999999999804e-01
2.780000000000000000e+02,7.338086999999999804e-01
2.790000000000000000e+02,7.338086999999999804e-01
2.800000000000000000e+02,7.338086999999999804e-01
2.810000000000000000e+02,7.338086999999999804e-01
2.820000000000000000e+02,7.338086999999999804e-01
2.830000000000000000e+02,7.338086999999999804e-01
2.840000000000000000e+02,7.338086999999999804e-01
2.850000000000000000e+02,7.338086999999999804e-01
2.860000000000000000e+02,7.338086999999999804e-01
2.870000000000000000e+02,7.338086999999999804e-01
2.880000000000000000e+02,7.338086999999999804e-01
2.890000000000000000e+02,7.338086999999999804e-01
2.900000000000000000e+02,7.338086999999999804e-01
2.910000000000000000e+02,7.338086999999999804e-01
2.920000000000000000e+02,7.338086999999999804e-01
2.930000000000000000e+02,7.338086999999999804e-01
2.940000000000000000e+02,7.338086999999999804e-01
2.950000000000000000e+02,7.338086999999999804e-01
2.960000000000000000e+02,7.338086999999999804e-01
2.970000000000000000e+02,7.338086999999999804e-01
2.980000000000000000e+02,7.338086999999999804e-01
2.990000000000000000e+02,7.338086999999999804e-01
3.000000000000000000e+02,7.338086999999999804e-01
3.010000000000000000e+02,7.338086999999999804e-01
3.020000000000000000e+02,7.338086999999999804e-01
3.030000000000000000e+02,7.338086999999999804e-01
3.040000000000000000e+02,7.338086999999999804e-01
3.050000000000000000e+02,7.338086999999999804e-01
3.060000000000000000e+02,7.338086999999999804e-01
3.070000000000000000e+02,7.338086999999999804e-01
3.080000000000000000e+02,7.338086999999999804e-01
3.090000000000000000e+02,7.338086999999999804e-01
3.100000000000000000e+02,7.338086999999999804e-01
3.110000000000000000e+02,7.338086999999999804e-01
3.120000000000000000e+02,7.338086999999999804e-01
3.130000000000000000e+02,7.338086999999999804e-01
3.140000000000000000e+02,7.338086999999999804e-01
3.150000000000000000e+02,7.338086999999999804e-01
3.160000000000000000e+02,7.338086999999999804e-01
3.170000000000000000e+02,7.338086999999999804e-01
3.180000000000000000e+02,7.338086999999999804e-01
3.190000000000000000e+02,7.338086999999999804e-01
3.200000000000000000e+02,7.338086999999999804e-01
3.210000000000000000e+02,7.338086999999999804e-01
3.220000000000000000e+02,7.338086999999999804e-01
3.230000000000000000e+02,7.338086999999999804e-01
3.240000000000000000e+02,7.338086999999999804e-01
3.250000000000000000e+02,7.338086999999999804e-01
3.260000000000000000e+02,7.338086999999999804e-01
3.270000000000000000e+02,7.338086999999999804e-01
3.280000000000000000e+02,7.338086999999999804e-01
3.290000000000000000e+02,7.338086999999999804e-01
3.300000000000000000e+02,7.338086999999999804e-01
3.310000000000000000e+02,7.338086999999999804e-01
3.320000000000000000e+02,7.338086999999999804e-01
3.330000000000000000e+02,7.338086999999999804e-01
3.340000000000000000e+02,7.338086999999999804e-01
3.350000000000000000e+02,7.338086999999999804e-01
3.360000000000000000e+02,7.338086999999999804e-01
3.370000000000000000e+02,7.338086999999999804e-01
3.380000000000000000e+02,7.338086999999999804e-01
3.390000000000000000e+02,7.338086999999999804e-01
3.400000000000000000e+02,7.338086999999999804e-01
3.410000000000000000e+02,7.338086999999999804e-01
3.420000000000000000e+02,7.338086999999999804e-01
3.430000000000000000e+02,7.338086999999999804e-01
3.440000000000000000e+02,7.338086999999999804e-01
3.450000000000000000e+02,7.338086999999999804e-01
3.460000000000000000e+02,7.338086999999999804e-01
3.470000000000000000e+02,7.338086999999999804e-01
3.480000000000000000e+02,7.338086999999999804e-01
3.490000000000000000e+02,7.338086999999999804e-01
3.500000000000000000e+02,7.338086999999999804e-01
3.510000000000000000e+02,7.338086999999999804e-01
3.520000000000000000e+02,7.338086999999999804e-01
3.530000000000000000e+02,7.338086999999999804e-01
3.540000000000000000e+02,7.338086999999999804e-01
3.550000000000000000e+02,7.338086999999999804e-01
3.560000000000000000e+02,7.338086999999999804e-01
3.570000000000000000e+02,7.338086999999999804e-01
3.580000000000000000e+02,7.338086999999999804e-01
3.590000000000000000e+02,7.338086999999999804e-01
3.600000000000000000e+02,7.338086999999999804e-01
3.610000000000000000e+02,7.338086999999999804e-01
3.620000000000000000e+02,7.338086999999999804e-01
3.630000000000000000e+02,7.338086999999999804e-01
3.640000000000000000e+02,7.338086999999999804e-01
3.650000000000000000e+02,7.338086999999999804e-01
3.660000000000000000e+02,7.338086999999999804e-01
3.670000000000000000e+02,7.338086999999999804e-01
3.680000000000000000e+02,7.338086999999999804e-01
3.690000000000000000e+02,7.338086999999999804e-01
3.700000000000000000e+02,7.338086999999999804e-01
3.710000000000000000e+02,7.338086999999999804e-01
3.720000000000000000e+02,7.338086999999999804e-01
3.730000000000000000e+02,7.338086999999999804e-01
3.740000000000000000e+02,7.338086999999999804e-01
3.750000000000000000e+02,7.338086999999999804e-01
3.760000000000000000e+02,7.338086999999999804e-01
3.770000000000000000e+02,7.338086999999999804e-01
3.780000000000000000e+02,7.338086999999999804e-01
3.790000000000000000e+02,7.338086999999999804e-01
3.800000000000000000e+02,7.338086999999999804e-01
3.810000000000000000e+02,7.338086999999999804e-01
3.820000000000000000e+02,7.338086999999999804e-01
3.830000000000000000e+02,7.338086999999999804e-01
3.840000000000000000e+02,7.338086999999999804e-01
3.850000000000000000e+02,7.338086999999999804e-01
3.860000000000000000e+02,7.338086999999999804e-01
3.870000000000000000e+02,7.338086999999999804e-01
3.880000000000000000e+02,7.338086999999999804e-01
3.890000000000000000e+02,7.338086999999999804e-01
3.900000000000000000e+02,7.338086999999999804e-01
3.910000000000000000e+02,7.338086999999999804e-01
3.920000000000000000e+02,7.338086999999999804e-01
3.930000000000000000e+02,7.338086999999999804e-01
3.940000000000000000e+02,7.338086999999999804e-01
3.950000000000000000e+02,7.338086999999999804e-01
3.960000000000000000e+02,7.338086999999999804e-01
3.970000000000000000e+02,7.338086999999999804e-01
3.980000000000000000e+02,7.338086999999999804e-01
3.990000000000000000e+02,7.338086999999999804e-01
4.000000000000000000e+02,7.338086999999999804e-01
4.010000000000000000e+02,7.338086999999999804e-01
4.020000000000000000e+02,7.338086999999999804e-01
4.030000000000000000e+02,7.338086999999999804e-01
4.040000000000000000e+02,7.338086999999999804e-01
4.050000000000000000e+02,7.338086999999999804e-01
4.060000000000000000e+02,7.338086999999999804e-01
4.070000000000000000e+02,7.338086999999999804e-01
4.080000000000000000e+02,7.338086999999999804e-01
4.090000000000000000e+02,7.338086999999999804e-01
4.100000000000000000e+02,7.338086999999999804e-01
4.110000000000000000e+02,7.338086999999999804e-01
4.120000000000000000e+02,7.338086999999999804e-01
4.130000000000000000e+02,7.338086999999999804e-01
4.140000000000000000e+02,7.338086999999999804e-01
4.150000000000000000e+02,7.338086999999999804e-01
4.160000000000000000e+02,7.338086999999999804e-01
4.170000000000000000e+02,7.338086999999999804e-01
4.180000000000000000e+02,7.338086999999999804e-01
4.190000000000000000e+02,7.338086999999999804e-01
4.200000000000000000e+02,7.338086999999999804e-01
4.210000000000000000e+02,7.338086999999999804e-01
4.220000000000000000e+02,7.338086999999999804e-01
4.230000000000000000e+02,7.338086999999999804e-01
4.240000000000000000e+02,7.338086999999999804e-01
4.250000000000000000e+02,7.338086999999999804e-01
4.260000000000000000e+02,7.338086999999999804e-01
4.270000000000000000e+02,7.338086999999999804e-01
4.280000000000000000e+02,7.338086999999999804e-01
4.290000000000000000e+02,7.338086999999999804e-01
4.300000000000000000e+02,7.338086999999999804e-01
4.310000000000000000e+02,7.338086999999999804e-01
4.320000000000000000e+02,7.338086999999999804e-01
4.330000000000000000e+02,7.338086999999999804e-01
4.340000000000000000e+02,7.338086999999999804e-01
4.350000000000000000e+02,7.338086999999999804e-01
4.360000000000000000e+02,7.338086999999999804e-01
4.370000000000000000e+02,7.338086999999999804e-01
4.380000000000000000e+02,7.338086999999999804e-01
4.390000000000000000e+02,7.338086999999999804e-01
4.400000000000000000e+02,7.338086999999999804e-01
4.410000000000000000e+02,7.338086999999999804e-01
4.420000000000000000e+02,7.338086999999999804e-01
4.430000000000000000e+02,7.338086999999999804e-01
4.440000000000000000e+02,7.338086999999999804e-01
4.450000000000000000e+02,7.338086999999999804e-01
4.460000000000000000e+02,7.338086999999999804e-01
4.470000000000000000e+02,7.338086999999999804e-01
4.480000000000000000e+02,7.338086999999999804e-01
4.490000000000000000e+02,7.338086999999999804e-01
4.500000000000000000e+02,7.338086999999999804e-01
4.510000000000000000e+02,7.338086999999999804e-01
4.520000000000000000e+02,7.338086999999999804e-01
4.530000000000000000e+02,7.338086999999999804e-01
4.540000000000000000e+02,7.338086999999999804e-01
4.550000000000000000e+02,7.338086999999999804e-01
4.560000000000000000e+02,7.338086999999999804e-01
4.570000000000000000e+02,7.338086999999999804e-01
4.580000000000000000e+02,7.338086999999999804e-01
4.590000000000000000e+02,7.338086999999999804e-01
4.600000000000000000e+02,7.338086999999999804e-01
4.610000000000000000e+02,7.338086999999999804e-01
4.620000000000000000e+02,7.338086999999999804e-01
4.630000000000000000e+02,7.338086999999999804e-01
4.640000000000000000e+02,7.338086999999999804e-01
4.650000000000000000e+02,7.338086999999999804e-01
4.660000000000000000e+02,7.338086999999999804e-01
4.670000000000000000e+02,7.338086999999999804e-01
4.680000000000000000e+02,7.338086999999999804e-01
4.690000000000000000e+02,7.338086999999999804e-01
4.700000000000000000e+02,7.338086999999999804e-01
4.710000000000000000e+02,7.338086999999999804e-01
4.720000000000000000e+02,7.338086999999999804e-01
4.730000000000000000e+02,7.338086999999999804e-01
4.740000000000000000e+02,7.338086999999999804e-01
4.750000000000000000e+02,7.338086999999999804e-01
4.760000000000000000e+02,7.338086999999999804e-01
4.770000000000000000e+02,7.338086999999999804e-01
4.780000000000000000e+02,7.338086999999999804e-01
4.790000000000000000e+02,7.338086999999999804e-01
4.800000000000000000e+02,7.338086999999999804e-01
4.810000000000000000e+02,7.338086999999999804e-01
4.820000000000000000e+02,7.338086999999999804e-01
4.830000000000000000e+02,7.338086999999999804e-01
4.840000000000000000e+02,7.338086999999999804e-01
4.850000000000000000e+02,7.338086999999999804e-01
4.860000000000000000e+02,7.338086999999999804e-01
4.870000000000000000e+02,7.338086999999999804e-01
4.880000000000000000e+02,7.338086999999999804e-01
4.890000000000000000e+02,7.338086999999999804e-01
4.900000000000000000e+02,7.338086999999999804e-01
4.910000000000000000e+02,7.338086999999999804e-01
4.920000000000000000e+02,7.338086999999999804e-01
4.930000000000000000e+02,7.338086999999999804e-01
4.940000000000000000e+02,7.338086999999999804e-01
4.950000000000000000e+02,7.338086999999999804e-01
4.960000000000000000e+02,7.338086999999999804e-01
4.970000000000000000e+02,7.338086999999999804e-01
4.980000000000000000e+02,7.338086999999999804e-01
4.990000000000000000e+02,7.338086999999999804e-01
5.000000000000000000e+02,7.338086999999999804e-01
5.010000000000000000e+02,7.338086999999999804e-01
5.020000000000000000e+02,7.338086999999999804e-01
5.030000000000000000e+02,7.338086999999999804e-01
5.040000000000000000e+02,7.338086999999999804e-01
5.050000000000000000e+02,7.338086999999999804e-01
5.060000000000000000e+02,7.338086999999999804e-01
5.070000000000000000e+02,7.338086999999999804e-01
5.080000000000000000e+02,7.338086999999999804e-01
5.090000000000000000e+02,7.338086999999999804e-01
5.100000000000000000e+02,7.338086999999999804e-01
5.110000000000000000e+02,7.338086999999999804e-01
5.120000000000000000e+02,7.338086999999999804e-01
5.130000000000000000e+02,7.338086999999999804e-01
5.140000000000000000e+02,7.338086999999999804e-01
5.150000000000000000e+02,7.338086999999999804e-01
5.160000000000000000e+02,7.338086999999999804e-01
5.170000000000000000e+02,7.338086999999999804e-01
5.180000000000000000e+02,7.338086999999999804e-01
5.190000000000000000e+02,7.338086999999999804e-01
5.200000000000000000e+02,7.338086999999999804e-01
5.210000000000000000e+02,7.338086999999999804e-01
5.220000000000000000e+02,7.338086999999999804e-01
5.230000000000000000e+02,7.338086999999999804e-01
5.240000000000000000e+02,7.338086999999999804e-01
5.250000000000000000e+02,7.338086999999999804e-01
5.260000000000000000e+02,7.338086999999999804e-01
5.270000000000000000e+02,7.338086999999999804e-01
5.280000000000000000e+02,7.338086999999999804e-01
5.290000000000000000e+02,7.338086999999999804e-01
5.300000000000000000e+02,7.338086999999999804e-01
5.310000000000000000e+02,7.338086999999999804e-01
5.320000000000000000e+02,7.338086999999999804e-01
5.330000000000000000e+02,7.338086999999999804e-01
5.340000000000000000e+02,7.338086999999999804e-01
5.350000000000000000e+02,7.338086999999999804e-01
5.360000000000000000e+02,7.338086999999999804e-01
5.370000000000000000e+02,7.338086999999999804e-01
5.380000000000000000e+02,7.338086999999999804e-01
5.390000000000000000e+02,7.338086999999999804e-01
5.400000000000000000e+02,7.338086999999999804e-01
5.410000000000000000e+02,7.338086999999999804e-01
5.420000000000000000e+02,7.338086999999999804e-01
5.430000000000000000e+02,7.338086999999999804e-01
5.440000000000000000e+02,7.338086999999999804e-01
5.450000000000000000e+02,7.338086999999999804e-01
5.460000000000000000e+02,7.338086999999999804e-01
5.470000000000000000e+02,7.338086999999999804e-01
5.480000000000000000e+02,7.338086999999999804e-01
5.490000000000000000e+02,7.338086999999999804e-01
5.500000000000000000e+02,7.338086999999999804e-01
5.510000000000000000e+02,7.338086999999999804e-01
5.520000000000000000e+02,7.338086999999999804e-01
5.530000000000000000e+02,7.338086999999999804e-01
5.540000000000000000e+02,7.338086999999999804e-01
5.550000000000000000e+02,7.338086999999999804e-01
5.560000000000000000e+02,7.338086999999999804e-01
5.570000000000000000e+02,7.338086999999999804e-01
5.580000000000000000e+02,7.338086999999999804e-01
5.590000000000000000e+02,7.338086999999999804e-01
5.600000000000000000e+02,7.338086999999999804e-01
5.610000000000000000e+02,7.338086999999999804e-01
5.620000000000000000e+02,7.338086999999999804e-01
5.630000000000000000e+02,7.338086999999999804e-01
5.640000000000000000e+02,7.338086999999999804e-01
5.650000000000000000e+02,7.338086999999999804e-01
5.660000000000000000e+02,7.338086999999999804e-01
5.670000000000000000e+02,7.338086999999999804e-01
5.680000000000000000e+02,7.338086999999999804e-01
5.690000000000000000e+02,7.338086999999999804e-01
5.700000000000000000e+02,7.338086999999999804e-01
5.710000000000000000e+02,7.338086999999999804e-01
5.720000000000000000e+02,7.338086999999999804e-01
5.730000000000000000e+02,7.338086999999999804e-01
5.740000000000000000e+02,7.338086999999999804e-01
5.750000000000000000e+02,7.338086999999999804e-01
5.760000000000000000e+02,7.338086999999999804e-01
5.770000000000000000e+02,7.338086999999999804e-01
5.780000000000000000e+02,7.338086999999999804e-01
5.790000000000000000e+02,7.338086999999999804e-01
5.800000000000000000e+02,7.338086999999999804e-01
5.810000000000000000e+02,7.338086999999999804e-01
5.820000000000000000e+02,7.338086999999999804e-01
5.830000000000000000e+02,7.338086999999999804e-01
5.840000000000000000e+02,7.338086999999999804e-01
5.850000000000000000e+02,7.338086999999999804e-01
5.860000000000000000e+02,7.338086999999999804e-01
5.870000000000000000e+02,7.338086999999999804e-01
5.880000000000000000e+02,7.338086999999999804e-01
5.890000000000000000e+02,7.338086999999999804e-01
5.900000000000000000e+02,7.338086999999999804e-01
5.910000000000000000e+02,7.338086999999999804e-01
5.920000000000000000e+02,7.338086999999999804e-01
5.930000000000000000e+02,7.338086999999999804e-01
5.940000000000000000e+02,7.338086999999999804e-01
5.950000000000000000e+02,7.338086999999999804e-01
5.960000000000000000e+02,7.338086999999999804e-01
5.970000000000000000e+02,7.338086999999999804e-01
5.980000000000000000e+02,7.338086999999999804e-01
5.990000000000000000e+02,7.338086999999999804e-01