,75kW,100kW
2MassTGA,0.0004161051249999997,1.8635916666667567e-05
2Mass,0.00044300800833333207,1.4283166666664941e-05
