# Time [s], Temperature [C]
1.000000000000000000e+00,2.500000000000000000e+01
2.000000000000000000e+00,2.500000000000000000e+01
3.000000000000000000e+00,2.500000000000000000e+01
4.000000000000000000e+00,2.500000000000000000e+01
5.000000000000000000e+00,2.500000199999999850e+01
6.000000000000000000e+00,2.500001100000000065e+01
7.000000000000000000e+00,2.500005099999999914e+01
8.000000000000000000e+00,2.500018499999999833e+01
9.000000000000000000e+00,2.500056299999999965e+01
1.000000000000000000e+01,2.500149700000000053e+01
1.100000000000000000e+01,2.500354400000000155e+01
1.200000000000000000e+01,2.500758400000000137e+01
1.300000000000000000e+01,2.501488900000000015e+01
1.400000000000000000e+01,2.502714299999999881e+01
1.500000000000000000e+01,2.504643199999999936e+01
1.600000000000000000e+01,2.507518999999999920e+01
1.700000000000000000e+01,2.511613099999999932e+01
1.800000000000000000e+01,2.517216099999999912e+01
1.900000000000000000e+01,2.524629399999999890e+01
2.000000000000000000e+01,2.534157000000000082e+01
2.100000000000000000e+01,2.546098299999999881e+01
2.200000000000000000e+01,2.560741000000000156e+01
2.300000000000000000e+01,2.578357499999999902e+01
2.400000000000000000e+01,2.599202500000000171e+01
2.500000000000000000e+01,2.623507700000000042e+01
2.600000000000000000e+01,2.651479099999999889e+01
2.700000000000000000e+01,2.683303499999999886e+01
2.800000000000000000e+01,2.719140600000000063e+01
2.900000000000000000e+01,2.759126300000000143e+01
3.000000000000000000e+01,2.803373099999999951e+01
3.100000000000000000e+01,2.851972999999999914e+01
3.200000000000000000e+01,2.904997399999999885e+01
3.300000000000000000e+01,2.962493299999999863e+01
3.400000000000000000e+01,3.024498699999999829e+01
3.500000000000000000e+01,3.091023799999999966e+01
3.600000000000000000e+01,3.162074099999999888e+01
3.700000000000000000e+01,3.237638100000000208e+01
3.800000000000000000e+01,3.317686499999999938e+01
3.900000000000000000e+01,3.402181600000000117e+01
4.000000000000000000e+01,3.491076699999999988e+01
4.100000000000000000e+01,3.584316299999999700e+01
4.200000000000000000e+01,3.681827899999999687e+01
4.300000000000000000e+01,3.783539999999999992e+01
4.400000000000000000e+01,3.889377199999999846e+01
4.500000000000000000e+01,3.999252700000000260e+01
4.600000000000000000e+01,4.113071800000000167e+01
4.700000000000000000e+01,4.230733099999999780e+01
4.800000000000000000e+01,4.352135499999999979e+01
4.900000000000000000e+01,4.477172500000000355e+01
5.000000000000000000e+01,4.605732700000000079e+01
5.100000000000000000e+01,4.737709799999999660e+01
5.200000000000000000e+01,4.872994599999999821e+01
5.300000000000000000e+01,5.011459700000000339e+01
5.400000000000000000e+01,5.153002500000000197e+01
5.500000000000000000e+01,5.297496799999999695e+01
5.600000000000000000e+01,5.444837600000000322e+01
5.700000000000000000e+01,5.594913900000000240e+01
5.800000000000000000e+01,5.747608199999999812e+01
5.900000000000000000e+01,5.902805299999999988e+01
6.000000000000000000e+01,6.060412600000000083e+01
6.100000000000000000e+01,6.220324300000000051e+01
6.200000000000000000e+01,6.382436400000000276e+01
6.300000000000000000e+01,6.546657600000000343e+01
6.400000000000000000e+01,6.712886799999999710e+01
6.500000000000000000e+01,6.881033299999999997e+01
6.600000000000000000e+01,7.051006300000000238e+01
6.700000000000000000e+01,7.222730300000000625e+01
6.800000000000000000e+01,7.396126599999999485e+01
6.900000000000000000e+01,7.571106000000000336e+01
7.000000000000000000e+01,7.747605099999999823e+01
7.100000000000000000e+01,7.925541699999999423e+01
7.200000000000000000e+01,8.104850000000000421e+01
7.300000000000000000e+01,8.285471300000000383e+01
7.400000000000000000e+01,8.467332500000000550e+01
7.500000000000000000e+01,8.650364700000000084e+01
7.600000000000000000e+01,8.834527599999999836e+01
7.700000000000000000e+01,9.019749500000000353e+01
7.800000000000000000e+01,9.205985300000000393e+01
7.900000000000000000e+01,9.393180099999999300e+01
8.000000000000000000e+01,9.581265999999999394e+01
8.100000000000000000e+01,9.770212600000000691e+01
8.200000000000000000e+01,9.959973100000000557e+01
8.300000000000000000e+01,1.015049599999999970e+02
8.400000000000000000e+01,1.034172400000000067e+02
8.500000000000000000e+01,1.053362400000000036e+02
8.600000000000000000e+01,1.072615600000000029e+02
8.700000000000000000e+01,1.091927900000000022e+02
8.800000000000000000e+01,1.111294999999999931e+02
8.900000000000000000e+01,1.130712099999999936e+02
9.000000000000000000e+01,1.150176900000000018e+02
9.100000000000000000e+01,1.169685300000000012e+02
9.200000000000000000e+01,1.189233100000000007e+02
9.300000000000000000e+01,1.208817399999999935e+02
9.400000000000000000e+01,1.228435400000000044e+02
9.500000000000000000e+01,1.248083299999999980e+02
9.600000000000000000e+01,1.267758000000000038e+02
9.700000000000000000e+01,1.287456400000000087e+02
9.800000000000000000e+01,1.307175300000000107e+02
9.900000000000000000e+01,1.326911200000000122e+02
1.000000000000000000e+02,1.346662100000000066e+02
1.010000000000000000e+02,1.366425299999999936e+02
1.020000000000000000e+02,1.386197200000000009e+02
1.030000000000000000e+02,1.405975300000000061e+02
1.040000000000000000e+02,1.425757299999999930e+02
1.050000000000000000e+02,1.445540200000000084e+02
1.060000000000000000e+02,1.465321000000000140e+02
1.070000000000000000e+02,1.485098299999999938e+02
1.080000000000000000e+02,1.505012800000000084e+02
1.090000000000000000e+02,1.524836699999999894e+02
1.100000000000000000e+02,1.544628800000000126e+02
1.110000000000000000e+02,1.564401400000000137e+02
1.120000000000000000e+02,1.584154200000000117e+02
1.130000000000000000e+02,1.603887599999999907e+02
1.140000000000000000e+02,1.623601500000000044e+02
1.150000000000000000e+02,1.643295599999999865e+02
1.160000000000000000e+02,1.662969699999999875e+02
1.170000000000000000e+02,1.682622200000000134e+02
1.180000000000000000e+02,1.702253900000000044e+02
1.190000000000000000e+02,1.721862800000000107e+02
1.200000000000000000e+02,1.741447300000000098e+02
1.210000000000000000e+02,1.761005600000000015e+02
1.220000000000000000e+02,1.780535900000000140e+02
1.230000000000000000e+02,1.800036000000000058e+02
1.240000000000000000e+02,1.819503899999999987e+02
1.250000000000000000e+02,1.838936899999999923e+02
1.260000000000000000e+02,1.858333599999999990e+02
1.270000000000000000e+02,1.877692299999999932e+02
1.280000000000000000e+02,1.897011699999999905e+02
1.290000000000000000e+02,1.916289800000000128e+02
1.300000000000000000e+02,1.935524299999999869e+02
1.310000000000000000e+02,1.954712499999999977e+02
1.320000000000000000e+02,1.973854800000000012e+02
1.330000000000000000e+02,1.992949399999999969e+02
1.340000000000000000e+02,2.011993999999999971e+02
1.350000000000000000e+02,2.030986000000000047e+02
1.360000000000000000e+02,2.049924900000000036e+02
1.370000000000000000e+02,2.068809400000000096e+02
1.380000000000000000e+02,2.087637200000000064e+02
1.390000000000000000e+02,2.106405599999999936e+02
1.400000000000000000e+02,2.125115099999999870e+02
1.410000000000000000e+02,2.143762700000000052e+02
1.420000000000000000e+02,2.162346200000000067e+02
1.430000000000000000e+02,2.180865300000000104e+02
1.440000000000000000e+02,2.199317800000000034e+02
1.450000000000000000e+02,2.217701000000000136e+02
1.460000000000000000e+02,2.236014600000000030e+02
1.470000000000000000e+02,2.254255200000000059e+02
1.480000000000000000e+02,2.272422500000000127e+02
1.490000000000000000e+02,2.290513799999999947e+02
1.500000000000000000e+02,2.308528100000000052e+02
1.510000000000000000e+02,2.326462699999999870e+02
1.520000000000000000e+02,2.344316399999999874e+02
1.530000000000000000e+02,2.362085700000000088e+02
1.540000000000000000e+02,2.379770699999999977e+02
1.550000000000000000e+02,2.397367600000000039e+02
1.560000000000000000e+02,2.414875000000000114e+02
1.570000000000000000e+02,2.432291700000000105e+02
1.580000000000000000e+02,2.449613500000000101e+02
1.590000000000000000e+02,2.466838500000000067e+02
1.600000000000000000e+02,2.483965599999999938e+02
1.610000000000000000e+02,2.500990899999999897e+02
1.620000000000000000e+02,2.517912000000000035e+02
1.630000000000000000e+02,2.534725999999999999e+02
1.640000000000000000e+02,2.551430200000000070e+02
1.650000000000000000e+02,2.568020900000000211e+02
1.660000000000000000e+02,2.584495499999999879e+02
1.670000000000000000e+02,2.600850500000000238e+02
1.680000000000000000e+02,2.617082500000000209e+02
1.690000000000000000e+02,2.633187300000000164e+02
1.700000000000000000e+02,2.649160200000000032e+02
1.710000000000000000e+02,2.664997900000000186e+02
1.720000000000000000e+02,2.680695799999999736e+02
1.730000000000000000e+02,2.696250299999999811e+02
1.740000000000000000e+02,2.711656199999999899e+02
1.750000000000000000e+02,2.726908599999999865e+02
1.760000000000000000e+02,2.742001599999999826e+02
1.770000000000000000e+02,2.756940599999999790e+02
1.780000000000000000e+02,2.771713300000000118e+02
1.790000000000000000e+02,2.786318999999999733e+02
1.800000000000000000e+02,2.800758400000000279e+02
1.810000000000000000e+02,2.815027799999999729e+02
1.820000000000000000e+02,2.829120800000000031e+02
1.830000000000000000e+02,2.843029199999999719e+02
1.840000000000000000e+02,2.856741900000000101e+02
1.850000000000000000e+02,2.870251200000000154e+02
1.860000000000000000e+02,2.883547699999999736e+02
1.870000000000000000e+02,2.896625099999999975e+02
1.880000000000000000e+02,2.909479099999999789e+02
1.890000000000000000e+02,2.922104199999999992e+02
1.900000000000000000e+02,2.934494900000000257e+02
1.910000000000000000e+02,2.946649499999999762e+02
1.920000000000000000e+02,2.958564799999999764e+02
1.930000000000000000e+02,2.970237999999999943e+02
1.940000000000000000e+02,2.981668700000000172e+02
1.950000000000000000e+02,2.992857399999999757e+02
1.960000000000000000e+02,3.003806799999999839e+02
1.970000000000000000e+02,3.014518699999999853e+02
1.980000000000000000e+02,3.024994199999999864e+02
1.990000000000000000e+02,3.035232199999999807e+02
2.000000000000000000e+02,3.045234399999999937e+02
2.010000000000000000e+02,3.055001800000000003e+02
2.020000000000000000e+02,3.064538299999999822e+02
2.030000000000000000e+02,3.073847999999999843e+02
2.040000000000000000e+02,3.082936700000000201e+02
2.050000000000000000e+02,3.091812699999999836e+02
2.060000000000000000e+02,3.100482499999999959e+02
2.070000000000000000e+02,3.108955100000000016e+02
2.080000000000000000e+02,3.117239700000000084e+02
2.090000000000000000e+02,3.125346999999999866e+02
2.100000000000000000e+02,3.133287000000000262e+02
2.110000000000000000e+02,3.141071800000000280e+02
2.120000000000000000e+02,3.148710599999999999e+02
2.130000000000000000e+02,3.156219199999999887e+02
2.140000000000000000e+02,3.163607200000000148e+02
2.150000000000000000e+02,3.170885299999999916e+02
2.160000000000000000e+02,3.178058199999999829e+02
2.170000000000000000e+02,3.185127600000000143e+02
2.180000000000000000e+02,3.192098100000000045e+02
2.190000000000000000e+02,3.198986800000000130e+02
2.200000000000000000e+02,3.205817000000000121e+02
2.210000000000000000e+02,3.212611099999999738e+02
2.220000000000000000e+02,3.219386900000000082e+02
2.230000000000000000e+02,3.226159400000000232e+02
2.240000000000000000e+02,3.232939099999999826e+02
2.250000000000000000e+02,3.240376899999999978e+02
2.260000000000000000e+02,3.247578399999999874e+02
2.270000000000000000e+02,3.254720500000000243e+02
2.280000000000000000e+02,3.261842300000000137e+02
2.290000000000000000e+02,3.268949299999999880e+02
2.300000000000000000e+02,3.276070300000000088e+02
2.310000000000000000e+02,3.283227499999999850e+02
2.320000000000000000e+02,3.290448900000000094e+02
2.330000000000000000e+02,3.297747200000000021e+02
2.340000000000000000e+02,3.305124799999999823e+02
2.350000000000000000e+02,3.312568400000000111e+02
2.360000000000000000e+02,3.320059499999999844e+02
2.370000000000000000e+02,3.327613200000000120e+02
2.380000000000000000e+02,3.335273700000000190e+02
2.390000000000000000e+02,3.343080400000000054e+02
2.400000000000000000e+02,3.351053200000000061e+02
2.410000000000000000e+02,3.359204399999999850e+02
2.420000000000000000e+02,3.367542700000000195e+02
2.430000000000000000e+02,3.376074499999999716e+02
2.440000000000000000e+02,3.384805299999999875e+02
2.450000000000000000e+02,3.393742700000000241e+02
2.460000000000000000e+02,3.402899800000000141e+02
2.470000000000000000e+02,3.412286399999999844e+02
2.480000000000000000e+02,3.421901899999999728e+02
2.490000000000000000e+02,3.431732799999999770e+02
2.500000000000000000e+02,3.441733699999999772e+02
2.510000000000000000e+02,3.451885700000000270e+02
2.520000000000000000e+02,3.462245199999999841e+02
2.530000000000000000e+02,3.472891799999999876e+02
2.540000000000000000e+02,3.483872400000000198e+02
2.550000000000000000e+02,3.495201099999999883e+02
2.560000000000000000e+02,3.506894500000000221e+02
2.570000000000000000e+02,3.518967599999999720e+02
2.580000000000000000e+02,3.531432800000000043e+02
2.590000000000000000e+02,3.544311799999999835e+02
2.600000000000000000e+02,3.557644700000000171e+02
2.610000000000000000e+02,3.571426700000000096e+02
2.620000000000000000e+02,3.585693999999999733e+02
2.630000000000000000e+02,3.600476100000000201e+02
2.640000000000000000e+02,3.615826700000000073e+02
2.650000000000000000e+02,3.631762699999999882e+02
2.660000000000000000e+02,3.648259300000000280e+02
2.670000000000000000e+02,3.665301799999999730e+02
2.680000000000000000e+02,3.682972700000000259e+02
2.690000000000000000e+02,3.701336099999999760e+02
2.700000000000000000e+02,3.720450099999999907e+02
2.710000000000000000e+02,3.740394900000000007e+02
2.720000000000000000e+02,3.761233500000000163e+02
2.730000000000000000e+02,3.783094800000000077e+02
2.740000000000000000e+02,3.810035700000000247e+02
2.750000000000000000e+02,3.835167500000000018e+02
2.760000000000000000e+02,3.860441299999999956e+02
2.770000000000000000e+02,3.887077300000000264e+02
2.780000000000000000e+02,3.915002400000000193e+02
2.790000000000000000e+02,3.944286200000000235e+02
2.800000000000000000e+02,3.974938399999999774e+02
2.810000000000000000e+02,4.007229600000000005e+02
2.820000000000000000e+02,4.041238999999999919e+02
2.830000000000000000e+02,4.077130399999999781e+02
2.840000000000000000e+02,4.115048199999999952e+02
2.850000000000000000e+02,4.155095200000000091e+02
2.860000000000000000e+02,4.197376699999999801e+02
2.870000000000000000e+02,4.241895099999999843e+02
2.880000000000000000e+02,4.288853799999999978e+02
2.890000000000000000e+02,4.338114299999999730e+02
2.900000000000000000e+02,4.389454000000000065e+02
2.910000000000000000e+02,4.442939099999999826e+02
2.920000000000000000e+02,4.498653299999999717e+02
2.930000000000000000e+02,4.556355599999999981e+02
2.940000000000000000e+02,4.615982399999999757e+02
2.950000000000000000e+02,4.677176499999999919e+02
2.960000000000000000e+02,4.740133700000000090e+02
2.970000000000000000e+02,4.803927600000000098e+02
2.980000000000000000e+02,4.868323100000000068e+02
2.990000000000000000e+02,4.933097500000000082e+02
3.000000000000000000e+02,4.997620200000000068e+02
3.010000000000000000e+02,5.061145300000000020e+02
3.020000000000000000e+02,5.123722500000000082e+02
3.030000000000000000e+02,5.185377200000000357e+02
3.040000000000000000e+02,5.245727500000000418e+02
3.050000000000000000e+02,5.305136700000000474e+02
3.060000000000000000e+02,5.363032799999999725e+02
3.070000000000000000e+02,5.419404899999999543e+02
3.080000000000000000e+02,5.474361599999999726e+02
3.090000000000000000e+02,5.527587300000000141e+02
3.100000000000000000e+02,5.578720100000000457e+02
3.110000000000000000e+02,5.628213500000000522e+02
3.120000000000000000e+02,5.676320200000000114e+02
3.130000000000000000e+02,5.722970599999999877e+02
3.140000000000000000e+02,5.768567500000000337e+02
3.150000000000000000e+02,5.812662400000000389e+02
3.160000000000000000e+02,5.855325900000000274e+02
3.170000000000000000e+02,5.896825000000000045e+02
3.180000000000000000e+02,5.936814600000000155e+02
3.190000000000000000e+02,5.974927999999999884e+02
3.200000000000000000e+02,6.011843300000000454e+02
3.210000000000000000e+02,6.047807000000000244e+02
3.220000000000000000e+02,6.082829600000000028e+02
3.230000000000000000e+02,6.116385500000000093e+02
3.240000000000000000e+02,6.147239399999999705e+02
3.250000000000000000e+02,6.176016799999999876e+02
3.260000000000000000e+02,6.204174199999999928e+02
3.270000000000000000e+02,6.232038599999999633e+02
3.280000000000000000e+02,6.259321899999999914e+02
3.290000000000000000e+02,6.286343399999999519e+02
3.300000000000000000e+02,6.313101799999999457e+02
3.310000000000000000e+02,6.338935500000000047e+02
3.320000000000000000e+02,6.363648699999999963e+02
3.330000000000000000e+02,6.387896700000000010e+02
3.340000000000000000e+02,6.411182900000000018e+02
3.350000000000000000e+02,6.433260500000000093e+02
3.360000000000000000e+02,6.455090300000000525e+02
3.370000000000000000e+02,6.476373300000000199e+02
3.380000000000000000e+02,6.496771899999999960e+02
3.390000000000000000e+02,6.515876500000000533e+02
3.400000000000000000e+02,6.534728999999999814e+02
3.410000000000000000e+02,6.552612299999999550e+02
3.420000000000000000e+02,6.569795500000000175e+02
3.430000000000000000e+02,6.586521599999999808e+02
3.440000000000000000e+02,6.603822599999999738e+02
3.450000000000000000e+02,6.621578399999999647e+02
3.460000000000000000e+02,6.637097800000000234e+02
3.470000000000000000e+02,6.649993299999999863e+02
3.480000000000000000e+02,6.660640899999999647e+02
3.490000000000000000e+02,6.673083500000000186e+02
3.500000000000000000e+02,6.685544999999999618e+02
3.510000000000000000e+02,6.697910799999999654e+02
3.520000000000000000e+02,6.710568799999999783e+02
3.530000000000000000e+02,6.720831299999999828e+02
3.540000000000000000e+02,6.733012099999999691e+02
3.550000000000000000e+02,6.742664200000000392e+02
3.560000000000000000e+02,6.754718000000000302e+02
3.570000000000000000e+02,6.765565800000000536e+02
3.580000000000000000e+02,6.775839200000000346e+02
3.590000000000000000e+02,6.787191800000000512e+02
3.600000000000000000e+02,6.794270000000000209e+02
3.610000000000000000e+02,6.805883800000000292e+02
3.620000000000000000e+02,6.812033099999999877e+02
3.630000000000000000e+02,6.821674199999999928e+02
3.640000000000000000e+02,6.832602500000000418e+02
3.650000000000000000e+02,6.837518900000000031e+02
3.660000000000000000e+02,6.845657999999999674e+02
3.670000000000000000e+02,6.846798700000000508e+02
3.680000000000000000e+02,6.856925700000000461e+02
3.690000000000000000e+02,6.856944600000000491e+02
3.700000000000000000e+02,6.866302500000000464e+02
3.710000000000000000e+02,6.877665399999999636e+02
3.720000000000000000e+02,6.878775000000000546e+02
3.730000000000000000e+02,6.887855799999999817e+02
3.740000000000000000e+02,6.883638300000000072e+02
3.750000000000000000e+02,6.897434100000000399e+02
3.760000000000000000e+02,6.900146499999999605e+02
3.770000000000000000e+02,6.900855099999999993e+02
3.780000000000000000e+02,6.911827399999999670e+02
3.790000000000000000e+02,6.906978100000000040e+02
3.800000000000000000e+02,6.922617199999999684e+02
3.810000000000000000e+02,6.913210400000000391e+02
3.820000000000000000e+02,6.936647299999999632e+02
3.830000000000000000e+02,6.937996799999999666e+02
3.840000000000000000e+02,6.935315600000000131e+02
3.850000000000000000e+02,6.951579600000000028e+02
3.860000000000000000e+02,6.939249899999999798e+02
3.870000000000000000e+02,6.964357300000000350e+02
3.880000000000000000e+02,6.943547399999999925e+02
3.890000000000000000e+02,6.958804300000000467e+02
3.900000000000000000e+02,6.977753900000000158e+02
3.910000000000000000e+02,6.963186600000000226e+02
3.920000000000000000e+02,6.985828900000000203e+02
3.930000000000000000e+02,6.959403099999999540e+02
3.940000000000000000e+02,6.997888799999999492e+02
3.950000000000000000e+02,6.990668299999999817e+02
3.960000000000000000e+02,6.976560100000000375e+02
3.970000000000000000e+02,7.000676899999999705e+02
3.980000000000000000e+02,6.972862499999999955e+02
3.990000000000000000e+02,7.013401499999999942e+02
4.000000000000000000e+02,6.968812900000000354e+02
4.010000000000000000e+02,6.990961300000000165e+02
4.020000000000000000e+02,7.017551899999999705e+02
4.030000000000000000e+02,6.988085300000000188e+02
4.040000000000000000e+02,7.026272599999999784e+02
4.050000000000000000e+02,6.977574499999999489e+02
4.060000000000000000e+02,7.042763099999999667e+02
4.070000000000000000e+02,7.025262500000000045e+02
4.080000000000000000e+02,6.996657699999999522e+02
4.090000000000000000e+02,7.035310100000000375e+02
4.100000000000000000e+02,6.986350099999999657e+02
4.110000000000000000e+02,7.052038000000000011e+02
4.120000000000000000e+02,6.974033200000000079e+02
4.130000000000000000e+02,7.008366099999999506e+02
4.140000000000000000e+02,7.047568400000000111e+02
4.150000000000000000e+02,6.998377699999999777e+02
4.160000000000000000e+02,7.060123899999999821e+02
4.170000000000000000e+02,6.980537100000000237e+02
4.180000000000000000e+02,7.085376599999999598e+02
4.190000000000000000e+02,6.959839500000000498e+02
4.200000000000000000e+02,7.017304699999999684e+02
4.210000000000000000e+02,7.078930100000000039e+02
4.220000000000000000e+02,7.000954600000000028e+02
4.230000000000000000e+02,7.100769000000000233e+02
4.240000000000000000e+02,6.974855999999999767e+02
4.250000000000000000e+02,7.026265300000000025e+02
4.260000000000000000e+02,7.082793599999999969e+02
4.270000000000000000e+02,7.006345800000000281e+02
4.280000000000000000e+02,7.101372699999999440e+02
4.290000000000000000e+02,6.978826299999999492e+02
4.300000000000000000e+02,7.140133700000000090e+02
4.310000000000000000e+02,7.089896199999999453e+02
4.320000000000000000e+02,7.013812299999999595e+02
4.330000000000000000e+02,7.105828900000000203e+02
4.340000000000000000e+02,6.987448699999999917e+02
4.350000000000000000e+02,7.141682100000000446e+02
4.360000000000000000e+02,6.953867199999999684e+02
4.370000000000000000e+02,7.033019399999999450e+02
4.380000000000000000e+02,7.113942299999999932e+02
4.390000000000000000e+02,7.003616299999999910e+02
4.400000000000000000e+02,7.143893399999999474e+02
4.410000000000000000e+02,6.965236800000000130e+02
4.420000000000000000e+02,7.203314199999999801e+02
4.430000000000000000e+02,7.128940999999999804e+02
4.440000000000000000e+02,7.015120200000000068e+02
4.450000000000000000e+02,7.150809299999999666e+02
4.460000000000000000e+02,6.978354500000000371e+02
4.470000000000000000e+02,7.203604699999999639e+02
4.480000000000000000e+02,6.930983899999999949e+02
4.490000000000000000e+02,7.047202800000000025e+02
4.500000000000000000e+02,7.158942299999999932e+02
4.510000000000000000e+02,7.003212899999999763e+02
4.520000000000000000e+02,7.204445200000000114e+02
4.530000000000000000e+02,6.950163000000000011e+02
4.540000000000000000e+02,7.294095499999999674e+02
4.550000000000000000e+02,7.187700800000000072e+02
4.560000000000000000e+02,7.019780899999999519e+02
4.570000000000000000e+02,7.217409699999999475e+02
4.580000000000000000e+02,6.969453099999999495e+02
4.590000000000000000e+02,7.295370500000000220e+02
4.600000000000000000e+02,6.905139199999999846e+02
4.610000000000000000e+02,7.075375400000000354e+02
4.620000000000000000e+02,7.226804200000000264e+02
4.630000000000000000e+02,7.009868199999999661e+02
4.640000000000000000e+02,7.296054699999999684e+02
4.650000000000000000e+02,6.936970199999999522e+02
4.660000000000000000e+02,7.084331700000000183e+02
4.670000000000000000e+02,7.225685399999999845e+02
4.680000000000000000e+02,7.021468499999999722e+02
4.690000000000000000e+02,7.285399200000000519e+02
4.700000000000000000e+02,6.949285300000000234e+02
4.710000000000000000e+02,7.082618999999999687e+02
4.720000000000000000e+02,7.213093300000000454e+02
4.730000000000000000e+02,7.024127799999999979e+02
4.740000000000000000e+02,7.265308199999999488e+02
4.750000000000000000e+02,6.955006700000000137e+02
4.760000000000000000e+02,7.369132100000000491e+02
4.770000000000000000e+02,7.231674799999999550e+02
4.780000000000000000e+02,7.025706800000000385e+02
4.790000000000000000e+02,7.264592300000000478e+02
4.800000000000000000e+02,6.963747600000000375e+02
4.810000000000000000e+02,7.353581500000000233e+02
4.820000000000000000e+02,7.217347999999999502e+02
4.830000000000000000e+02,7.033057300000000396e+02
4.840000000000000000e+02,7.247249799999999595e+02
4.850000000000000000e+02,6.974187600000000202e+02
4.860000000000000000e+02,7.324702099999999518e+02
4.870000000000000000e+02,6.894293800000000374e+02
4.880000000000000000e+02,7.070671999999999571e+02
4.890000000000000000e+02,7.229610000000000127e+02
4.900000000000000000e+02,7.000368700000000217e+02
4.910000000000000000e+02,7.299768100000000004e+02
4.920000000000000000e+02,6.918915399999999636e+02
4.930000000000000000e+02,7.068675500000000511e+02
4.940000000000000000e+02,7.215092200000000275e+02
4.950000000000000000e+02,7.004891999999999825e+02
4.960000000000000000e+02,7.275078700000000254e+02
4.970000000000000000e+02,6.928949000000000069e+02
4.980000000000000000e+02,7.391085799999999608e+02
4.990000000000000000e+02,7.235041499999999814e+02
5.000000000000000000e+02,7.005524299999999585e+02
5.010000000000000000e+02,7.272391400000000203e+02
5.020000000000000000e+02,6.938928200000000288e+02
5.030000000000000000e+02,7.369660000000000082e+02
5.040000000000000000e+02,7.216788900000000240e+02
5.050000000000000000e+02,7.015441899999999578e+02
5.060000000000000000e+02,7.250298500000000104e+02
5.070000000000000000e+02,6.952954099999999471e+02
5.080000000000000000e+02,7.334097900000000436e+02
5.090000000000000000e+02,6.866875000000000000e+02
5.100000000000000000e+02,7.057093499999999722e+02
5.110000000000000000e+02,7.226995200000000068e+02
5.120000000000000000e+02,6.983415499999999838e+02
5.130000000000000000e+02,7.302861900000000333e+02
5.140000000000000000e+02,6.897345000000000255e+02
5.150000000000000000e+02,7.056209700000000566e+02
5.160000000000000000e+02,7.211364700000000312e+02
5.170000000000000000e+02,6.990357099999999946e+02
5.180000000000000000e+02,7.275540200000000368e+02
5.190000000000000000e+02,6.911206100000000561e+02
5.200000000000000000e+02,7.397533600000000433e+02
5.210000000000000000e+02,7.231795700000000124e+02
5.220000000000000000e+02,6.991139500000000453e+02
5.230000000000000000e+02,7.271716900000000123e+02
5.240000000000000000e+02,6.922616000000000440e+02
5.250000000000000000e+02,7.372563499999999976e+02
5.260000000000000000e+02,7.211536899999999832e+02
5.270000000000000000e+02,7.002976700000000392e+02
5.280000000000000000e+02,7.246998300000000199e+02
5.290000000000000000e+02,6.939228500000000395e+02
5.300000000000000000e+02,7.333267200000000230e+02
5.310000000000000000e+02,6.850572499999999536e+02
5.320000000000000000e+02,7.046133399999999938e+02
5.330000000000000000e+02,7.220655500000000302e+02
5.340000000000000000e+02,6.971948200000000497e+02
5.350000000000000000e+02,7.298537000000000035e+02
5.360000000000000000e+02,6.884458600000000388e+02
5.370000000000000000e+02,7.046127900000000182e+02
5.380000000000000000e+02,7.204454299999999876e+02
5.390000000000000000e+02,6.980432700000000068e+02
5.400000000000000000e+02,7.269872400000000425e+02
5.410000000000000000e+02,6.900653099999999540e+02
5.420000000000000000e+02,7.392749000000000024e+02
5.430000000000000000e+02,7.223859899999999925e+02
5.440000000000000000e+02,6.981478299999999990e+02
5.450000000000000000e+02,7.264853500000000395e+02
5.460000000000000000e+02,6.912939499999999953e+02
5.470000000000000000e+02,7.365677500000000464e+02
5.480000000000000000e+02,7.202670299999999770e+02
5.490000000000000000e+02,6.994208399999999983e+02
5.500000000000000000e+02,7.238734100000000353e+02
5.510000000000000000e+02,6.930878900000000158e+02
5.520000000000000000e+02,7.324450699999999870e+02
5.530000000000000000e+02,6.842136199999999917e+02
5.540000000000000000e+02,7.036595499999999674e+02
5.550000000000000000e+02,7.210947899999999890e+02
5.560000000000000000e+02,6.963933100000000422e+02
5.570000000000000000e+02,7.288054200000000264e+02
5.580000000000000000e+02,6.877277800000000525e+02
5.590000000000000000e+02,7.037114299999999503e+02
5.600000000000000000e+02,7.194357300000000350e+02
5.610000000000000000e+02,6.973158600000000433e+02
5.620000000000000000e+02,7.258791499999999814e+02
5.630000000000000000e+02,6.894685699999999997e+02
5.640000000000000000e+02,7.378772000000000162e+02
5.650000000000000000e+02,7.211625400000000354e+02
5.660000000000000000e+02,6.974519699999999602e+02
5.670000000000000000e+02,7.252323000000000093e+02
5.680000000000000000e+02,6.907484100000000353e+02
5.690000000000000000e+02,7.350211199999999963e+02
5.700000000000000000e+02,7.190140400000000227e+02
5.710000000000000000e+02,6.987277199999999766e+02
5.720000000000000000e+02,7.225792199999999639e+02
5.730000000000000000e+02,6.925676300000000083e+02
5.740000000000000000e+02,7.308786000000000058e+02
5.750000000000000000e+02,6.838796999999999571e+02
5.760000000000000000e+02,7.027320600000000468e+02
5.770000000000000000e+02,7.197751500000000533e+02
5.780000000000000000e+02,6.957720299999999725e+02
5.790000000000000000e+02,7.272029999999999745e+02
5.800000000000000000e+02,6.873676799999999503e+02
5.810000000000000000e+02,7.028082299999999805e+02
5.820000000000000000e+02,7.180980799999999817e+02
5.830000000000000000e+02,6.967125200000000405e+02
5.840000000000000000e+02,7.242833900000000540e+02
5.850000000000000000e+02,6.891530199999999695e+02
5.860000000000000000e+02,7.357045299999999770e+02
5.870000000000000000e+02,7.195285599999999704e+02
5.880000000000000000e+02,6.968899499999999989e+02
5.890000000000000000e+02,7.234881000000000313e+02
5.900000000000000000e+02,6.904528800000000501e+02
5.910000000000000000e+02,7.327749000000000024e+02
5.920000000000000000e+02,7.174113200000000461e+02
5.930000000000000000e+02,6.981146199999999453e+02
5.940000000000000000e+02,7.208582199999999602e+02
5.950000000000000000e+02,6.922346199999999499e+02
5.960000000000000000e+02,7.287013500000000477e+02
5.970000000000000000e+02,6.838947799999999688e+02
5.980000000000000000e+02,7.017605600000000550e+02
5.990000000000000000e+02,7.181131000000000313e+02