# Time [s], Temperature [C]
1.000000000000000000e+00,2.500000000000000000e+01
2.000000000000000000e+00,2.500000000000000000e+01
3.000000000000000000e+00,2.500000000000000000e+01
4.000000000000000000e+00,2.500000000000000000e+01
5.000000000000000000e+00,2.500000599999999906e+01
6.000000000000000000e+00,2.500003399999999942e+01
7.000000000000000000e+00,2.500014699999999834e+01
8.000000000000000000e+00,2.500050399999999939e+01
9.000000000000000000e+00,2.500146900000000016e+01
1.000000000000000000e+01,2.500374000000000052e+01
1.100000000000000000e+01,2.500848399999999927e+01
1.200000000000000000e+01,2.501744499999999860e+01
1.300000000000000000e+01,2.503298399999999901e+01
1.400000000000000000e+01,2.505805799999999905e+01
1.500000000000000000e+01,2.509613399999999928e+01
1.600000000000000000e+01,2.515106000000000108e+01
1.700000000000000000e+01,2.522692500000000138e+01
1.800000000000000000e+01,2.532791699999999935e+01
1.900000000000000000e+01,2.545819499999999991e+01
2.000000000000000000e+01,2.562177799999999905e+01
2.100000000000000000e+01,2.582246400000000008e+01
2.200000000000000000e+01,2.606376500000000007e+01
2.300000000000000000e+01,2.634885600000000139e+01
2.400000000000000000e+01,2.668055499999999824e+01
2.500000000000000000e+01,2.706129599999999868e+01
2.600000000000000000e+01,2.749316800000000072e+01
2.700000000000000000e+01,2.797786100000000076e+01
2.800000000000000000e+01,2.851672399999999996e+01
2.900000000000000000e+01,2.911079799999999906e+01
3.000000000000000000e+01,2.976079400000000064e+01
3.100000000000000000e+01,3.046716500000000138e+01
3.200000000000000000e+01,3.123010299999999972e+01
3.300000000000000000e+01,3.204957999999999885e+01
3.400000000000000000e+01,3.292535399999999868e+01
3.500000000000000000e+01,3.385701000000000249e+01
3.600000000000000000e+01,3.484400600000000026e+01
3.700000000000000000e+01,3.594456900000000132e+01
3.800000000000000000e+01,3.706538799999999867e+01
3.900000000000000000e+01,3.823085799999999779e+01
4.000000000000000000e+01,3.944540800000000047e+01
4.100000000000000000e+01,4.070857999999999777e+01
4.200000000000000000e+01,4.201966099999999926e+01
4.300000000000000000e+01,4.337759799999999899e+01
4.400000000000000000e+01,4.478125000000000000e+01
4.500000000000000000e+01,4.622928600000000188e+01
4.600000000000000000e+01,4.772037900000000121e+01
4.700000000000000000e+01,4.925309800000000138e+01
4.800000000000000000e+01,5.082599600000000351e+01
4.900000000000000000e+01,5.243760699999999986e+01
5.000000000000000000e+01,5.408641800000000188e+01
5.100000000000000000e+01,5.577091200000000271e+01
5.200000000000000000e+01,5.748957399999999751e+01
5.300000000000000000e+01,5.924082899999999796e+01
5.400000000000000000e+01,6.102313600000000093e+01
5.500000000000000000e+01,6.283502200000000215e+01
5.600000000000000000e+01,6.467494200000000149e+01
5.700000000000000000e+01,6.654135100000000591e+01
5.800000000000000000e+01,6.843285400000000607e+01
5.900000000000000000e+01,7.034802999999999429e+01
6.000000000000000000e+01,7.228549200000000496e+01
6.100000000000000000e+01,7.424386599999999703e+01
6.200000000000000000e+01,7.622193099999999788e+01
6.300000000000000000e+01,7.821841399999999567e+01
6.400000000000000000e+01,8.023211700000000235e+01
6.500000000000000000e+01,8.226195500000000038e+01
6.600000000000000000e+01,8.430680099999999300e+01
6.700000000000000000e+01,8.636563900000000160e+01
6.800000000000000000e+01,8.843746899999999300e+01
6.900000000000000000e+01,9.052137000000000455e+01
7.000000000000000000e+01,9.261650099999999952e+01
7.100000000000000000e+01,9.472203799999999774e+01
7.200000000000000000e+01,9.683709000000000344e+01
7.300000000000000000e+01,9.896096000000000004e+01
7.400000000000000000e+01,1.010929699999999940e+02
7.500000000000000000e+01,1.032323599999999999e+02
7.600000000000000000e+01,1.053784899999999993e+02
7.700000000000000000e+01,1.075307899999999961e+02
7.800000000000000000e+01,1.096886099999999971e+02
7.900000000000000000e+01,1.118513899999999950e+02
8.000000000000000000e+01,1.140186199999999985e+02
8.100000000000000000e+01,1.161897199999999941e+02
8.200000000000000000e+01,1.183642700000000048e+02
8.300000000000000000e+01,1.205417199999999980e+02
8.400000000000000000e+01,1.227216600000000000e+02
8.500000000000000000e+01,1.249036100000000005e+02
8.600000000000000000e+01,1.270871999999999957e+02
8.700000000000000000e+01,1.292719899999999882e+02
8.800000000000000000e+01,1.314576099999999883e+02
8.900000000000000000e+01,1.336437400000000082e+02
9.000000000000000000e+01,1.358299700000000030e+02
9.100000000000000000e+01,1.380160400000000038e+02
9.200000000000000000e+01,1.402015700000000038e+02
9.300000000000000000e+01,1.423863200000000120e+02
9.400000000000000000e+01,1.445698999999999899e+02
9.500000000000000000e+01,1.467520900000000097e+02
9.600000000000000000e+01,1.489325900000000047e+02
9.700000000000000000e+01,1.511111500000000092e+02
9.800000000000000000e+01,1.532874600000000100e+02
9.900000000000000000e+01,1.554612899999999911e+02
1.000000000000000000e+02,1.576324600000000089e+02
1.010000000000000000e+02,1.598006900000000030e+02
1.020000000000000000e+02,1.619657699999999920e+02
1.030000000000000000e+02,1.641274300000000039e+02
1.040000000000000000e+02,1.662854800000000068e+02
1.050000000000000000e+02,1.684397600000000068e+02
1.060000000000000000e+02,1.705900300000000129e+02
1.070000000000000000e+02,1.727361500000000092e+02
1.080000000000000000e+02,1.748778399999999920e+02
1.090000000000000000e+02,1.770149399999999957e+02
1.100000000000000000e+02,1.791473799999999983e+02
1.110000000000000000e+02,1.812749000000000024e+02
1.120000000000000000e+02,1.833973100000000045e+02
1.130000000000000000e+02,1.855145300000000077e+02
1.140000000000000000e+02,1.876263600000000054e+02
1.150000000000000000e+02,1.897325999999999908e+02
1.160000000000000000e+02,1.918331300000000113e+02
1.170000000000000000e+02,1.939278400000000033e+02
1.180000000000000000e+02,1.960165100000000109e+02
1.190000000000000000e+02,1.980990099999999927e+02
1.200000000000000000e+02,2.001752199999999959e+02
1.210000000000000000e+02,2.022449599999999919e+02
1.220000000000000000e+02,2.043083599999999933e+02
1.230000000000000000e+02,2.063649100000000089e+02
1.240000000000000000e+02,2.084146000000000072e+02
1.250000000000000000e+02,2.104573200000000099e+02
1.260000000000000000e+02,2.124930400000000077e+02
1.270000000000000000e+02,2.145217000000000098e+02
1.280000000000000000e+02,2.165433700000000101e+02
1.290000000000000000e+02,2.185580400000000054e+02
1.300000000000000000e+02,2.205657699999999863e+02
1.310000000000000000e+02,2.225664800000000128e+02
1.320000000000000000e+02,2.245601000000000056e+02
1.330000000000000000e+02,2.265464900000000057e+02
1.340000000000000000e+02,2.285255600000000129e+02
1.350000000000000000e+02,2.304971299999999985e+02
1.360000000000000000e+02,2.324610000000000127e+02
1.370000000000000000e+02,2.344169899999999984e+02
1.380000000000000000e+02,2.363649100000000089e+02
1.390000000000000000e+02,2.383045700000000124e+02
1.400000000000000000e+02,2.402357900000000086e+02
1.410000000000000000e+02,2.421584799999999973e+02
1.420000000000000000e+02,2.440724299999999971e+02
1.430000000000000000e+02,2.459775199999999984e+02
1.440000000000000000e+02,2.478735399999999913e+02
1.450000000000000000e+02,2.497603900000000010e+02
1.460000000000000000e+02,2.516379499999999894e+02
1.470000000000000000e+02,2.535060599999999909e+02
1.480000000000000000e+02,2.553645600000000115e+02
1.490000000000000000e+02,2.572133499999999913e+02
1.500000000000000000e+02,2.590522500000000150e+02
1.510000000000000000e+02,2.608811299999999846e+02
1.520000000000000000e+02,2.626998300000000199e+02
1.530000000000000000e+02,2.645082400000000007e+02
1.540000000000000000e+02,2.663060899999999833e+02
1.550000000000000000e+02,2.680932900000000245e+02
1.560000000000000000e+02,2.698695700000000102e+02
1.570000000000000000e+02,2.716347999999999843e+02
1.580000000000000000e+02,2.733886400000000094e+02
1.590000000000000000e+02,2.751309800000000223e+02
1.600000000000000000e+02,2.768614799999999718e+02
1.610000000000000000e+02,2.785798599999999965e+02
1.620000000000000000e+02,2.802858899999999949e+02
1.630000000000000000e+02,2.819792800000000170e+02
1.640000000000000000e+02,2.836596400000000244e+02
1.650000000000000000e+02,2.853266600000000039e+02
1.660000000000000000e+02,2.869800099999999929e+02
1.670000000000000000e+02,2.886193499999999972e+02
1.680000000000000000e+02,2.902442599999999970e+02
1.690000000000000000e+02,2.918543700000000172e+02
1.700000000000000000e+02,2.934492500000000064e+02
1.710000000000000000e+02,2.950285000000000082e+02
1.720000000000000000e+02,2.965916700000000219e+02
1.730000000000000000e+02,2.981382800000000088e+02
1.740000000000000000e+02,2.996679100000000062e+02
1.750000000000000000e+02,3.011800499999999943e+02
1.760000000000000000e+02,3.026742899999999850e+02
1.770000000000000000e+02,3.041500199999999836e+02
1.780000000000000000e+02,3.056068099999999959e+02
1.790000000000000000e+02,3.070441900000000146e+02
1.800000000000000000e+02,3.084616100000000074e+02
1.810000000000000000e+02,3.098586099999999988e+02
1.820000000000000000e+02,3.112346499999999878e+02
1.830000000000000000e+02,3.125892299999999864e+02
1.840000000000000000e+02,3.139219100000000253e+02
1.850000000000000000e+02,3.152321800000000280e+02
1.860000000000000000e+02,3.165195899999999938e+02
1.870000000000000000e+02,3.177837499999999977e+02
1.880000000000000000e+02,3.190290200000000027e+02
1.890000000000000000e+02,3.202491499999999860e+02
1.900000000000000000e+02,3.214458300000000008e+02
1.910000000000000000e+02,3.226195099999999911e+02
1.920000000000000000e+02,3.237699600000000260e+02
1.930000000000000000e+02,3.248963299999999776e+02
1.940000000000000000e+02,3.259978300000000218e+02
1.950000000000000000e+02,3.270737599999999929e+02
1.960000000000000000e+02,3.281237800000000107e+02
1.970000000000000000e+02,3.291476700000000051e+02
1.980000000000000000e+02,3.301456299999999828e+02
1.990000000000000000e+02,3.311177700000000073e+02
2.000000000000000000e+02,3.320644500000000221e+02
2.010000000000000000e+02,3.329859900000000152e+02
2.020000000000000000e+02,3.338829299999999876e+02
2.030000000000000000e+02,3.347557699999999841e+02
2.040000000000000000e+02,3.356049800000000118e+02
2.050000000000000000e+02,3.364312400000000025e+02
2.060000000000000000e+02,3.372352300000000014e+02
2.070000000000000000e+02,3.380176700000000096e+02
2.080000000000000000e+02,3.387792400000000157e+02
2.090000000000000000e+02,3.395207500000000209e+02
2.100000000000000000e+02,3.402431000000000267e+02
2.110000000000000000e+02,3.409471100000000092e+02
2.120000000000000000e+02,3.416336999999999762e+02
2.130000000000000000e+02,3.423037699999999859e+02
2.140000000000000000e+02,3.429582500000000209e+02
2.150000000000000000e+02,3.435980200000000195e+02
2.160000000000000000e+02,3.442241799999999898e+02
2.170000000000000000e+02,3.448376200000000154e+02
2.180000000000000000e+02,3.454393000000000029e+02
2.190000000000000000e+02,3.460302100000000110e+02
2.200000000000000000e+02,3.466113000000000284e+02
2.210000000000000000e+02,3.471834400000000187e+02
2.220000000000000000e+02,3.477476500000000215e+02
2.230000000000000000e+02,3.483047500000000127e+02
2.240000000000000000e+02,3.488556500000000256e+02
2.250000000000000000e+02,3.494011800000000108e+02
2.260000000000000000e+02,3.499422000000000139e+02
2.270000000000000000e+02,3.504794299999999794e+02
2.280000000000000000e+02,3.510136999999999716e+02
2.290000000000000000e+02,3.515458100000000172e+02
2.300000000000000000e+02,3.520763200000000097e+02
2.310000000000000000e+02,3.526060200000000009e+02
2.320000000000000000e+02,3.531356200000000172e+02
2.330000000000000000e+02,3.536656500000000278e+02
2.340000000000000000e+02,3.541968100000000277e+02
2.350000000000000000e+02,3.547295799999999986e+02
2.360000000000000000e+02,3.553522899999999822e+02
2.370000000000000000e+02,3.559341699999999946e+02
2.380000000000000000e+02,3.565039699999999812e+02
2.390000000000000000e+02,3.570686000000000035e+02
2.400000000000000000e+02,3.576299700000000144e+02
2.410000000000000000e+02,3.581909499999999866e+02
2.420000000000000000e+02,3.587539100000000190e+02
2.430000000000000000e+02,3.593206799999999816e+02
2.440000000000000000e+02,3.598926399999999717e+02
2.450000000000000000e+02,3.604707900000000222e+02
2.460000000000000000e+02,3.610559999999999832e+02
2.470000000000000000e+02,3.616488600000000133e+02
2.480000000000000000e+02,3.622499099999999999e+02
2.490000000000000000e+02,3.628596800000000258e+02
2.500000000000000000e+02,3.634785200000000032e+02
2.510000000000000000e+02,3.641068399999999770e+02
2.520000000000000000e+02,3.647452400000000239e+02
2.530000000000000000e+02,3.653942000000000121e+02
2.540000000000000000e+02,3.660538300000000049e+02
2.550000000000000000e+02,3.667248799999999846e+02
2.560000000000000000e+02,3.674077500000000214e+02
2.570000000000000000e+02,3.681029100000000085e+02
2.580000000000000000e+02,3.688106099999999969e+02
2.590000000000000000e+02,3.695317999999999756e+02
2.600000000000000000e+02,3.702669700000000148e+02
2.610000000000000000e+02,3.710166600000000017e+02
2.620000000000000000e+02,3.717814599999999814e+02
2.630000000000000000e+02,3.725620999999999867e+02
2.640000000000000000e+02,3.733595599999999877e+02
2.650000000000000000e+02,3.741742600000000039e+02
2.660000000000000000e+02,3.750069899999999734e+02
2.670000000000000000e+02,3.758591599999999744e+02
2.680000000000000000e+02,3.767310800000000199e+02
2.690000000000000000e+02,3.776239600000000110e+02
2.700000000000000000e+02,3.785388800000000060e+02
2.710000000000000000e+02,3.794769900000000007e+02
2.720000000000000000e+02,3.804391200000000026e+02
2.730000000000000000e+02,3.814269100000000208e+02
2.740000000000000000e+02,3.824418000000000006e+02
2.750000000000000000e+02,3.834848900000000071e+02
2.760000000000000000e+02,3.845581700000000183e+02
2.770000000000000000e+02,3.856625099999999975e+02
2.780000000000000000e+02,3.868003199999999993e+02
2.790000000000000000e+02,3.879731400000000008e+02
2.800000000000000000e+02,3.891830400000000054e+02
2.810000000000000000e+02,3.904321899999999914e+02
2.820000000000000000e+02,3.917227500000000191e+02
2.830000000000000000e+02,3.930571899999999914e+02
2.840000000000000000e+02,3.944379299999999944e+02
2.850000000000000000e+02,3.958678600000000074e+02
2.860000000000000000e+02,3.973492100000000278e+02
2.870000000000000000e+02,3.988853500000000167e+02
2.880000000000000000e+02,4.004800099999999929e+02
2.890000000000000000e+02,4.021356499999999983e+02
2.900000000000000000e+02,4.038557400000000257e+02
2.910000000000000000e+02,4.056435500000000047e+02
2.920000000000000000e+02,4.075029299999999921e+02
2.930000000000000000e+02,4.094373499999999808e+02
2.940000000000000000e+02,4.114489399999999932e+02
2.950000000000000000e+02,4.135421400000000176e+02
2.960000000000000000e+02,4.157183800000000247e+02
2.970000000000000000e+02,4.179800099999999929e+02
2.980000000000000000e+02,4.203279400000000123e+02
2.990000000000000000e+02,4.227626599999999826e+02
3.000000000000000000e+02,4.252822899999999890e+02
3.010000000000000000e+02,4.278840900000000147e+02
3.020000000000000000e+02,4.305640300000000025e+02
3.030000000000000000e+02,4.333140000000000214e+02
3.040000000000000000e+02,4.361262800000000084e+02
3.050000000000000000e+02,4.393327600000000075e+02
3.060000000000000000e+02,4.422850000000000250e+02
3.070000000000000000e+02,4.452060900000000174e+02
3.080000000000000000e+02,4.481369900000000257e+02
3.090000000000000000e+02,4.510575000000000045e+02
3.100000000000000000e+02,4.539560500000000047e+02
3.110000000000000000e+02,4.568204299999999876e+02
3.120000000000000000e+02,4.596406900000000064e+02
3.130000000000000000e+02,4.624089999999999918e+02
3.140000000000000000e+02,4.651208199999999806e+02
3.150000000000000000e+02,4.677729499999999803e+02
3.160000000000000000e+02,4.703651399999999967e+02
3.170000000000000000e+02,4.728979800000000182e+02
3.180000000000000000e+02,4.753732899999999972e+02
3.190000000000000000e+02,4.777940699999999765e+02
3.200000000000000000e+02,4.801632399999999734e+02
3.210000000000000000e+02,4.824842800000000125e+02
3.220000000000000000e+02,4.847604699999999980e+02
3.230000000000000000e+02,4.869946299999999724e+02
3.240000000000000000e+02,4.891900299999999788e+02
3.250000000000000000e+02,4.913486899999999764e+02
3.260000000000000000e+02,4.934729300000000194e+02
3.270000000000000000e+02,4.955649999999999977e+02
3.280000000000000000e+02,4.976257600000000139e+02
3.290000000000000000e+02,4.996570699999999761e+02
3.300000000000000000e+02,5.016600000000000250e+02
3.310000000000000000e+02,5.036357699999999795e+02
3.320000000000000000e+02,5.055855999999999995e+02
3.330000000000000000e+02,5.075103500000000167e+02
3.340000000000000000e+02,5.094105500000000006e+02
3.350000000000000000e+02,5.112875099999999975e+02
3.360000000000000000e+02,5.131419700000000148e+02
3.370000000000000000e+02,5.149742999999999711e+02
3.380000000000000000e+02,5.167852799999999434e+02
3.390000000000000000e+02,5.185754399999999578e+02
3.400000000000000000e+02,5.203454000000000406e+02
3.410000000000000000e+02,5.220955800000000409e+02
3.420000000000000000e+02,5.238264799999999468e+02
3.430000000000000000e+02,5.255386999999999489e+02
3.440000000000000000e+02,5.272323000000000093e+02
3.450000000000000000e+02,5.289078399999999647e+02
3.460000000000000000e+02,5.305657300000000305e+02
3.470000000000000000e+02,5.322063600000000179e+02
3.480000000000000000e+02,5.338300799999999526e+02
3.490000000000000000e+02,5.354372600000000375e+02
3.500000000000000000e+02,5.370277700000000323e+02
3.510000000000000000e+02,5.386022900000000391e+02
3.520000000000000000e+02,5.401610100000000330e+02
3.530000000000000000e+02,5.417041000000000395e+02
3.540000000000000000e+02,5.432318699999999581e+02
3.550000000000000000e+02,5.447444500000000289e+02
3.560000000000000000e+02,5.462420700000000124e+02
3.570000000000000000e+02,5.477248499999999467e+02
3.580000000000000000e+02,5.491932399999999461e+02
3.590000000000000000e+02,5.506472800000000234e+02
3.600000000000000000e+02,5.520870400000000018e+02
3.610000000000000000e+02,5.535128200000000334e+02
3.620000000000000000e+02,5.549247400000000425e+02
3.630000000000000000e+02,5.563230600000000550e+02
3.640000000000000000e+02,5.577079499999999825e+02
3.650000000000000000e+02,5.590794100000000526e+02
3.660000000000000000e+02,5.604376800000000003e+02
3.670000000000000000e+02,5.617827099999999518e+02
3.680000000000000000e+02,5.631151099999999587e+02
3.690000000000000000e+02,5.644346299999999701e+02
3.700000000000000000e+02,5.657413900000000240e+02
3.710000000000000000e+02,5.670357099999999946e+02
3.720000000000000000e+02,5.683175700000000461e+02
3.730000000000000000e+02,5.695870999999999640e+02
3.740000000000000000e+02,5.708446000000000140e+02
3.750000000000000000e+02,5.720900900000000320e+02
3.760000000000000000e+02,5.733236100000000306e+02
3.770000000000000000e+02,5.745453499999999849e+02
3.780000000000000000e+02,5.757553699999999708e+02
3.790000000000000000e+02,5.769538000000000011e+02
3.800000000000000000e+02,5.781408099999999877e+02
3.810000000000000000e+02,5.793164100000000190e+02
3.820000000000000000e+02,5.804807700000000068e+02
3.830000000000000000e+02,5.816339699999999766e+02
3.840000000000000000e+02,5.827761799999999539e+02
3.850000000000000000e+02,5.839075299999999515e+02
3.860000000000000000e+02,5.850279500000000326e+02
3.870000000000000000e+02,5.861375100000000202e+02
3.880000000000000000e+02,5.872364499999999907e+02
3.890000000000000000e+02,5.883250699999999824e+02
3.900000000000000000e+02,5.894030199999999695e+02
3.910000000000000000e+02,5.904705800000000409e+02
3.920000000000000000e+02,5.915280199999999695e+02
3.930000000000000000e+02,5.925753200000000334e+02
3.940000000000000000e+02,5.936124300000000176e+02
3.950000000000000000e+02,5.946397100000000364e+02
3.960000000000000000e+02,5.956568600000000515e+02
3.970000000000000000e+02,5.966643699999999626e+02
3.980000000000000000e+02,5.976619899999999461e+02
3.990000000000000000e+02,5.986501500000000533e+02
4.000000000000000000e+02,5.996287200000000439e+02
4.010000000000000000e+02,6.005978999999999814e+02
4.020000000000000000e+02,6.015576200000000426e+02
4.030000000000000000e+02,6.025081800000000385e+02
4.040000000000000000e+02,6.034494600000000446e+02
4.050000000000000000e+02,6.043815299999999979e+02
4.060000000000000000e+02,6.053046900000000505e+02
4.070000000000000000e+02,6.062188099999999622e+02
4.080000000000000000e+02,6.071240199999999732e+02
4.090000000000000000e+02,6.080204499999999825e+02
4.100000000000000000e+02,6.089082600000000411e+02
4.110000000000000000e+02,6.097874100000000226e+02
4.120000000000000000e+02,6.106579600000000028e+02
4.130000000000000000e+02,6.115200200000000450e+02
4.140000000000000000e+02,6.123736000000000104e+02
4.150000000000000000e+02,6.132188700000000381e+02
4.160000000000000000e+02,6.140559700000000021e+02
4.170000000000000000e+02,6.148849500000000035e+02
4.180000000000000000e+02,6.157057499999999663e+02
4.190000000000000000e+02,6.165186200000000554e+02
4.200000000000000000e+02,6.173234300000000303e+02
4.210000000000000000e+02,6.181204199999999673e+02
4.220000000000000000e+02,6.189096100000000433e+02
4.230000000000000000e+02,6.196910400000000436e+02
4.240000000000000000e+02,6.204647800000000188e+02
4.250000000000000000e+02,6.212309599999999818e+02
4.260000000000000000e+02,6.219896199999999453e+02
4.270000000000000000e+02,6.227408400000000483e+02
4.280000000000000000e+02,6.234846199999999499e+02
4.290000000000000000e+02,6.242210700000000543e+02
4.300000000000000000e+02,6.249503200000000334e+02
4.310000000000000000e+02,6.256723600000000260e+02
4.320000000000000000e+02,6.263872699999999440e+02
4.330000000000000000e+02,6.270951499999999896e+02
4.340000000000000000e+02,6.277960199999999986e+02
4.350000000000000000e+02,6.284900499999999965e+02
4.360000000000000000e+02,6.291771199999999453e+02
4.370000000000000000e+02,6.298574800000000096e+02
4.380000000000000000e+02,6.305310699999999997e+02
4.390000000000000000e+02,6.311979999999999791e+02
4.400000000000000000e+02,6.318583399999999983e+02
4.410000000000000000e+02,6.325121500000000196e+02
4.420000000000000000e+02,6.331593599999999924e+02
4.430000000000000000e+02,6.338002900000000182e+02
4.440000000000000000e+02,6.344348800000000210e+02
4.450000000000000000e+02,6.350630499999999756e+02
4.460000000000000000e+02,6.356850600000000213e+02
4.470000000000000000e+02,6.363008399999999938e+02
4.480000000000000000e+02,6.369105799999999817e+02
4.490000000000000000e+02,6.375142200000000230e+02
4.500000000000000000e+02,6.381118800000000419e+02
4.510000000000000000e+02,6.387034899999999880e+02
4.520000000000000000e+02,6.392893100000000004e+02
4.530000000000000000e+02,6.398691999999999780e+02
4.540000000000000000e+02,6.404434199999999464e+02
4.550000000000000000e+02,6.410117800000000443e+02
4.560000000000000000e+02,6.415745799999999690e+02
4.570000000000000000e+02,6.421317099999999982e+02
4.580000000000000000e+02,6.426832900000000564e+02
4.590000000000000000e+02,6.432293700000000172e+02
4.600000000000000000e+02,6.437699599999999691e+02
4.610000000000000000e+02,6.443051799999999503e+02
4.620000000000000000e+02,6.448350199999999859e+02
4.630000000000000000e+02,6.453595000000000255e+02
4.640000000000000000e+02,6.458787800000000061e+02
4.650000000000000000e+02,6.463928799999999910e+02
4.660000000000000000e+02,6.469017300000000432e+02
4.670000000000000000e+02,6.474055799999999863e+02
4.680000000000000000e+02,6.479043000000000347e+02
4.690000000000000000e+02,6.483980699999999615e+02
4.700000000000000000e+02,6.488868400000000065e+02
4.710000000000000000e+02,6.493707299999999805e+02
4.720000000000000000e+02,6.498497300000000223e+02
4.730000000000000000e+02,6.503239099999999553e+02
4.740000000000000000e+02,6.507933299999999690e+02
4.750000000000000000e+02,6.512580000000000382e+02
4.760000000000000000e+02,6.517179599999999482e+02
4.770000000000000000e+02,6.521734000000000151e+02
4.780000000000000000e+02,6.526242099999999482e+02
4.790000000000000000e+02,6.530705000000000382e+02
4.800000000000000000e+02,6.535122699999999440e+02
4.810000000000000000e+02,6.539495799999999690e+02
4.820000000000000000e+02,6.543825100000000248e+02
4.830000000000000000e+02,6.548110400000000482e+02
4.840000000000000000e+02,6.552352300000000014e+02
4.850000000000000000e+02,6.556551500000000487e+02
4.860000000000000000e+02,6.560707999999999629e+02
4.870000000000000000e+02,6.564823000000000093e+02
4.880000000000000000e+02,6.568896499999999605e+02
4.890000000000000000e+02,6.572928500000000440e+02
4.900000000000000000e+02,6.576919599999999946e+02
4.910000000000000000e+02,6.580870999999999640e+02
4.920000000000000000e+02,6.584781500000000278e+02
4.930000000000000000e+02,6.588653000000000475e+02
4.940000000000000000e+02,6.592484699999999975e+02
4.950000000000000000e+02,6.596277499999999918e+02
4.960000000000000000e+02,6.600032300000000305e+02
4.970000000000000000e+02,6.603749400000000378e+02
4.980000000000000000e+02,6.607427999999999884e+02
4.990000000000000000e+02,6.611069300000000339e+02
5.000000000000000000e+02,6.614674099999999726e+02
5.010000000000000000e+02,6.618241600000000062e+02
5.020000000000000000e+02,6.621773100000000341e+02
5.030000000000000000e+02,6.625269200000000183e+02
5.040000000000000000e+02,6.628729899999999589e+02
5.050000000000000000e+02,6.632155199999999695e+02
5.060000000000000000e+02,6.635545700000000124e+02
5.070000000000000000e+02,6.638900800000000118e+02
5.080000000000000000e+02,6.642222900000000436e+02
5.090000000000000000e+02,6.645510900000000447e+02
5.100000000000000000e+02,6.648765300000000025e+02
5.110000000000000000e+02,6.651986699999999928e+02
5.120000000000000000e+02,6.655175199999999904e+02
5.130000000000000000e+02,6.658331299999999828e+02
5.140000000000000000e+02,6.661455099999999447e+02
5.150000000000000000e+02,6.664547099999999773e+02
5.160000000000000000e+02,6.667608000000000175e+02
5.170000000000000000e+02,6.670636600000000271e+02
5.180000000000000000e+02,6.673635299999999688e+02
5.190000000000000000e+02,6.676602799999999434e+02
5.200000000000000000e+02,6.679540399999999636e+02
5.210000000000000000e+02,6.682447499999999536e+02
5.220000000000000000e+02,6.685325299999999515e+02
5.230000000000000000e+02,6.688173799999999574e+02
5.240000000000000000e+02,6.690992999999999711e+02
5.250000000000000000e+02,6.693783600000000433e+02
5.260000000000000000e+02,6.696545399999999972e+02
5.270000000000000000e+02,6.699279199999999719e+02
5.280000000000000000e+02,6.701984899999999925e+02
5.290000000000000000e+02,6.704663100000000213e+02
5.300000000000000000e+02,6.707313799999999446e+02
5.310000000000000000e+02,6.709937099999999646e+02
5.320000000000000000e+02,6.712534200000000055e+02
5.330000000000000000e+02,6.715104400000000169e+02
5.340000000000000000e+02,6.717647699999999986e+02
5.350000000000000000e+02,6.720166000000000395e+02
5.360000000000000000e+02,6.722657500000000255e+02
5.370000000000000000e+02,6.725123899999999821e+02
5.380000000000000000e+02,6.727565299999999979e+02
5.390000000000000000e+02,6.729981099999999969e+02
5.400000000000000000e+02,6.732372400000000425e+02
5.410000000000000000e+02,6.734739399999999705e+02
5.420000000000000000e+02,6.737081899999999450e+02
5.430000000000000000e+02,6.739400600000000168e+02
5.440000000000000000e+02,6.741694899999999961e+02
5.450000000000000000e+02,6.743966100000000097e+02
5.460000000000000000e+02,6.746213999999999942e+02
5.470000000000000000e+02,6.748438700000000381e+02
5.480000000000000000e+02,6.750640300000000025e+02
5.490000000000000000e+02,6.752819799999999759e+02
5.500000000000000000e+02,6.754976799999999457e+02
5.510000000000000000e+02,6.757111200000000508e+02
5.520000000000000000e+02,6.759224199999999882e+02
5.530000000000000000e+02,6.761315299999999979e+02
5.540000000000000000e+02,6.763384999999999536e+02
5.550000000000000000e+02,6.765432700000000068e+02
5.560000000000000000e+02,6.767460300000000188e+02
5.570000000000000000e+02,6.769466599999999517e+02
5.580000000000000000e+02,6.771452000000000453e+02
5.590000000000000000e+02,6.773417399999999589e+02
5.600000000000000000e+02,6.775362499999999955e+02
5.610000000000000000e+02,6.777287599999999657e+02
5.620000000000000000e+02,6.779192500000000337e+02
5.630000000000000000e+02,6.781078499999999849e+02
5.640000000000000000e+02,6.782944300000000339e+02
5.650000000000000000e+02,6.784791300000000547e+02
5.660000000000000000e+02,6.786619299999999839e+02
5.670000000000000000e+02,6.788428300000000490e+02
5.680000000000000000e+02,6.790218499999999722e+02
5.690000000000000000e+02,6.791990399999999681e+02
5.700000000000000000e+02,6.793743899999999485e+02
5.710000000000000000e+02,6.795479699999999639e+02
5.720000000000000000e+02,6.797197899999999890e+02
5.730000000000000000e+02,6.798897699999999986e+02
5.740000000000000000e+02,6.800580400000000054e+02
5.750000000000000000e+02,6.802245500000000220e+02
5.760000000000000000e+02,6.803893399999999474e+02
5.770000000000000000e+02,6.805524299999999585e+02
5.780000000000000000e+02,6.807138700000000426e+02
5.790000000000000000e+02,6.808736000000000104e+02
5.800000000000000000e+02,6.810316800000000512e+02
5.810000000000000000e+02,6.811881100000000515e+02
5.820000000000000000e+02,6.813429599999999482e+02
5.830000000000000000e+02,6.814962199999999939e+02
5.840000000000000000e+02,6.816478899999999612e+02
5.850000000000000000e+02,6.817979699999999639e+02
5.860000000000000000e+02,6.819465300000000525e+02
5.870000000000000000e+02,6.820935699999999997e+02
5.880000000000000000e+02,6.822390100000000075e+02
5.890000000000000000e+02,6.823830000000000382e+02
5.900000000000000000e+02,6.825255100000000539e+02
5.910000000000000000e+02,6.826665600000000040e+02
5.920000000000000000e+02,6.828060900000000402e+02
5.930000000000000000e+02,6.829442099999999982e+02
5.940000000000000000e+02,6.830809299999999666e+02
5.950000000000000000e+02,6.832162499999999454e+02
5.960000000000000000e+02,6.833500999999999976e+02
5.970000000000000000e+02,6.834826000000000477e+02
5.980000000000000000e+02,6.836137099999999691e+02
5.990000000000000000e+02,6.837434700000000021e+02