# Time [s], Temperature [C]
1.000000000000000000e+00,2.500000000000000000e+01
2.000000000000000000e+00,2.500000000000000000e+01
3.000000000000000000e+00,2.500000000000000000e+01
4.000000000000000000e+00,2.500000000000000000e+01
5.000000000000000000e+00,2.500000199999999850e+01
6.000000000000000000e+00,2.500000599999999906e+01
7.000000000000000000e+00,2.500002299999999877e+01
8.000000000000000000e+00,2.500007799999999847e+01
9.000000000000000000e+00,2.500022900000000092e+01
1.000000000000000000e+01,2.500058599999999842e+01
1.100000000000000000e+01,2.500133900000000153e+01
1.200000000000000000e+01,2.500276900000000069e+01
1.300000000000000000e+01,2.500526400000000038e+01
1.400000000000000000e+01,2.500930599999999870e+01
1.500000000000000000e+01,2.501546700000000101e+01
1.600000000000000000e+01,2.502438400000000129e+01
1.700000000000000000e+01,2.503672999999999860e+01
1.800000000000000000e+01,2.505320199999999886e+01
1.900000000000000000e+01,2.507449300000000036e+01
2.000000000000000000e+01,2.510127400000000009e+01
2.100000000000000000e+01,2.513418199999999914e+01
2.200000000000000000e+01,2.517380500000000154e+01
2.300000000000000000e+01,2.522068399999999855e+01
2.400000000000000000e+01,2.527529699999999835e+01
2.500000000000000000e+01,2.533806799999999981e+01
2.600000000000000000e+01,2.540936100000000053e+01
2.700000000000000000e+01,2.548948299999999989e+01
2.800000000000000000e+01,2.557867999999999853e+01
2.900000000000000000e+01,2.567715799999999859e+01
3.000000000000000000e+01,2.578506700000000151e+01
3.100000000000000000e+01,2.590251500000000107e+01
3.200000000000000000e+01,2.602956400000000059e+01
3.300000000000000000e+01,2.616624499999999998e+01
3.400000000000000000e+01,2.631255700000000175e+01
3.500000000000000000e+01,2.646846000000000032e+01
3.600000000000000000e+01,2.663390400000000113e+01
3.700000000000000000e+01,2.680879399999999890e+01
3.800000000000000000e+01,2.699303799999999853e+01
3.900000000000000000e+01,2.718651600000000101e+01
4.000000000000000000e+01,2.738908400000000043e+01
4.100000000000000000e+01,2.760060100000000105e+01
4.200000000000000000e+01,2.782090000000000174e+01
4.300000000000000000e+01,2.804982199999999892e+01
4.400000000000000000e+01,2.828719299999999848e+01
4.500000000000000000e+01,2.853281799999999890e+01
4.600000000000000000e+01,2.878652200000000150e+01
4.700000000000000000e+01,2.904811899999999980e+01
4.800000000000000000e+01,2.931739800000000074e+01
4.900000000000000000e+01,2.959418499999999952e+01
5.000000000000000000e+01,2.987828599999999923e+01
5.100000000000000000e+01,3.016949100000000072e+01
5.200000000000000000e+01,3.046761899999999912e+01
5.300000000000000000e+01,3.077247200000000049e+01
5.400000000000000000e+01,3.108386399999999838e+01
5.500000000000000000e+01,3.140159600000000140e+01
5.600000000000000000e+01,3.172549800000000175e+01
5.700000000000000000e+01,3.205537799999999748e+01
5.800000000000000000e+01,3.239105200000000195e+01
5.900000000000000000e+01,3.273233799999999860e+01
6.000000000000000000e+01,3.307906700000000200e+01
6.100000000000000000e+01,3.343105299999999858e+01
6.200000000000000000e+01,3.378814299999999804e+01
6.300000000000000000e+01,3.415016899999999822e+01
6.400000000000000000e+01,3.451697500000000218e+01
6.500000000000000000e+01,3.488839000000000112e+01
6.600000000000000000e+01,3.526426299999999969e+01
6.700000000000000000e+01,3.564444699999999955e+01
6.800000000000000000e+01,3.602879000000000076e+01
6.900000000000000000e+01,3.641715200000000152e+01
7.000000000000000000e+01,3.680939099999999797e+01
7.100000000000000000e+01,3.720537600000000111e+01
7.200000000000000000e+01,3.760496499999999997e+01
7.300000000000000000e+01,3.800803799999999910e+01
7.400000000000000000e+01,3.841446299999999781e+01
7.500000000000000000e+01,3.882412000000000063e+01
7.600000000000000000e+01,3.923689300000000202e+01
7.700000000000000000e+01,3.965265999999999735e+01
7.800000000000000000e+01,4.007130800000000193e+01
7.900000000000000000e+01,4.049273300000000120e+01
8.000000000000000000e+01,4.091682800000000242e+01
8.100000000000000000e+01,4.134348299999999909e+01
8.200000000000000000e+01,4.177260199999999912e+01
8.300000000000000000e+01,4.220408599999999666e+01
8.400000000000000000e+01,4.263783300000000054e+01
8.500000000000000000e+01,4.307377600000000228e+01
8.600000000000000000e+01,4.351179900000000345e+01
8.700000000000000000e+01,4.395182400000000200e+01
8.800000000000000000e+01,4.439376800000000145e+01
8.900000000000000000e+01,4.483754299999999660e+01
9.000000000000000000e+01,4.528307300000000168e+01
9.100000000000000000e+01,4.573028200000000254e+01
9.200000000000000000e+01,4.617908899999999761e+01
9.300000000000000000e+01,4.662942499999999768e+01
9.400000000000000000e+01,4.708124200000000315e+01
9.500000000000000000e+01,4.753445099999999712e+01
9.600000000000000000e+01,4.798897900000000050e+01
9.700000000000000000e+01,4.844475899999999768e+01
9.800000000000000000e+01,4.890173300000000012e+01
9.900000000000000000e+01,4.935984799999999950e+01
1.000000000000000000e+02,4.981904600000000016e+01
1.010000000000000000e+02,5.027928500000000156e+01
1.020000000000000000e+02,5.074048200000000008e+01
1.030000000000000000e+02,5.120258299999999707e+01
1.040000000000000000e+02,5.166553900000000255e+01
1.050000000000000000e+02,5.212930699999999717e+01
1.060000000000000000e+02,5.259384200000000220e+01
1.070000000000000000e+02,5.305911300000000352e+01
1.080000000000000000e+02,5.352503999999999706e+01
1.090000000000000000e+02,5.399157699999999949e+01
1.100000000000000000e+02,5.445869100000000174e+01
1.110000000000000000e+02,5.492634199999999822e+01
1.120000000000000000e+02,5.539450099999999821e+01
1.130000000000000000e+02,5.586314399999999836e+01
1.140000000000000000e+02,5.633218800000000215e+01
1.150000000000000000e+02,5.680160500000000212e+01
1.160000000000000000e+02,5.727136600000000044e+01
1.170000000000000000e+02,5.774144400000000132e+01
1.180000000000000000e+02,5.821181099999999731e+01
1.190000000000000000e+02,5.868244200000000177e+01
1.200000000000000000e+02,5.915326699999999960e+01
1.210000000000000000e+02,5.962427100000000024e+01
1.220000000000000000e+02,6.009542799999999829e+01
1.230000000000000000e+02,6.056671500000000208e+01
1.240000000000000000e+02,6.103811600000000226e+01
1.250000000000000000e+02,6.150959399999999988e+01
1.260000000000000000e+02,6.198109099999999927e+01
1.270000000000000000e+02,6.245260600000000295e+01
1.280000000000000000e+02,6.292411799999999999e+01
1.290000000000000000e+02,6.339560699999999827e+01
1.300000000000000000e+02,6.386706499999999664e+01
1.310000000000000000e+02,6.433843199999999740e+01
1.320000000000000000e+02,6.480969199999999830e+01
1.330000000000000000e+02,6.528083800000000281e+01
1.340000000000000000e+02,6.575184600000000046e+01
1.350000000000000000e+02,6.622270199999999818e+01
1.360000000000000000e+02,6.669339800000000196e+01
1.370000000000000000e+02,6.716387899999999433e+01
1.380000000000000000e+02,6.763414000000000215e+01
1.390000000000000000e+02,6.810416399999999726e+01
1.400000000000000000e+02,6.857395900000000211e+01
1.410000000000000000e+02,6.904349499999999296e+01
1.420000000000000000e+02,6.951276400000000422e+01
1.430000000000000000e+02,6.998171200000000169e+01
1.440000000000000000e+02,7.045034800000000530e+01
1.450000000000000000e+02,7.091866299999999512e+01
1.460000000000000000e+02,7.138664199999999482e+01
1.470000000000000000e+02,7.185430100000000664e+01
1.480000000000000000e+02,7.232157899999999984e+01
1.490000000000000000e+02,7.278846699999999714e+01
1.500000000000000000e+02,7.325496699999999350e+01
1.510000000000000000e+02,7.372106200000000342e+01
1.520000000000000000e+02,7.418675199999999847e+01
1.530000000000000000e+02,7.465204599999999857e+01
1.540000000000000000e+02,7.511688999999999794e+01
1.550000000000000000e+02,7.558127600000000257e+01
1.560000000000000000e+02,7.604521200000000647e+01
1.570000000000000000e+02,7.650867499999999666e+01
1.580000000000000000e+02,7.697167199999999809e+01
1.590000000000000000e+02,7.743420399999999404e+01
1.600000000000000000e+02,7.789626300000000469e+01
1.610000000000000000e+02,7.835780300000000409e+01
1.620000000000000000e+02,7.881882500000000391e+01
1.630000000000000000e+02,7.927932699999999500e+01
1.640000000000000000e+02,7.973930400000000418e+01
1.650000000000000000e+02,8.019875299999999640e+01
1.660000000000000000e+02,8.065769199999999728e+01
1.670000000000000000e+02,8.111608099999999411e+01
1.680000000000000000e+02,8.157391400000000203e+01
1.690000000000000000e+02,8.203118100000000368e+01
1.700000000000000000e+02,8.248788500000000568e+01
1.710000000000000000e+02,8.294401600000000485e+01
1.720000000000000000e+02,8.339957400000000121e+01
1.730000000000000000e+02,8.385456800000000044e+01
1.740000000000000000e+02,8.430896799999999303e+01
1.750000000000000000e+02,8.476277899999999477e+01
1.760000000000000000e+02,8.521598799999999585e+01
1.770000000000000000e+02,8.566858700000000226e+01
1.780000000000000000e+02,8.612059000000000708e+01
1.790000000000000000e+02,8.657197600000000648e+01
1.800000000000000000e+02,8.702274300000000551e+01
1.810000000000000000e+02,8.747289999999999566e+01
1.820000000000000000e+02,8.792243999999999460e+01
1.830000000000000000e+02,8.837134600000000262e+01
1.840000000000000000e+02,8.881961800000000551e+01
1.850000000000000000e+02,8.926725799999999822e+01
1.860000000000000000e+02,8.971425600000000600e+01
1.870000000000000000e+02,9.016061399999999537e+01
1.880000000000000000e+02,9.060632300000000328e+01
1.890000000000000000e+02,9.105138399999999876e+01
1.900000000000000000e+02,9.149579599999999857e+01
1.910000000000000000e+02,9.193956000000000017e+01
1.920000000000000000e+02,9.238266000000000133e+01
1.930000000000000000e+02,9.282510399999999606e+01
1.940000000000000000e+02,9.326688400000000456e+01
1.950000000000000000e+02,9.370799300000000187e+01
1.960000000000000000e+02,9.414843799999999874e+01
1.970000000000000000e+02,9.458821899999999516e+01
1.980000000000000000e+02,9.502732100000000059e+01
1.990000000000000000e+02,9.546575199999999484e+01
2.000000000000000000e+02,9.590350300000000061e+01
2.010000000000000000e+02,9.634058400000000688e+01
2.020000000000000000e+02,9.677698499999999626e+01
2.030000000000000000e+02,9.721269999999999811e+01
2.040000000000000000e+02,9.764773599999999476e+01
2.050000000000000000e+02,9.808208500000000640e+01
2.060000000000000000e+02,9.851573899999999639e+01
2.070000000000000000e+02,9.894871500000000708e+01
2.080000000000000000e+02,9.938099699999999359e+01
2.090000000000000000e+02,9.981258400000000108e+01
2.100000000000000000e+02,1.002434800000000052e+02
2.110000000000000000e+02,1.006736800000000045e+02
2.120000000000000000e+02,1.011032000000000011e+02
2.130000000000000000e+02,1.015320099999999996e+02
2.140000000000000000e+02,1.019601300000000066e+02
2.150000000000000000e+02,1.023875500000000045e+02
2.160000000000000000e+02,1.028142799999999966e+02
2.170000000000000000e+02,1.032403000000000048e+02
2.180000000000000000e+02,1.036656200000000041e+02
2.190000000000000000e+02,1.040902300000000054e+02
2.200000000000000000e+02,1.045141500000000008e+02
2.210000000000000000e+02,1.049373700000000014e+02
2.220000000000000000e+02,1.053598899999999929e+02
2.230000000000000000e+02,1.057816899999999976e+02
2.240000000000000000e+02,1.062027999999999963e+02
2.250000000000000000e+02,1.066231800000000050e+02
2.260000000000000000e+02,1.070428699999999935e+02
2.270000000000000000e+02,1.074618499999999983e+02
2.280000000000000000e+02,1.078801299999999941e+02
2.290000000000000000e+02,1.082976900000000029e+02
2.300000000000000000e+02,1.087145500000000027e+02
2.310000000000000000e+02,1.091307099999999934e+02
2.320000000000000000e+02,1.095461600000000004e+02
2.330000000000000000e+02,1.099608900000000062e+02
2.340000000000000000e+02,1.103749200000000030e+02
2.350000000000000000e+02,1.107882400000000018e+02
2.360000000000000000e+02,1.112008399999999995e+02
2.370000000000000000e+02,1.116127400000000023e+02
2.380000000000000000e+02,1.120239299999999929e+02
2.390000000000000000e+02,1.124343999999999966e+02
2.400000000000000000e+02,1.128441600000000022e+02
2.410000000000000000e+02,1.132532300000000021e+02
2.420000000000000000e+02,1.136615800000000007e+02
2.430000000000000000e+02,1.140692099999999982e+02
2.440000000000000000e+02,1.144761400000000009e+02
2.450000000000000000e+02,1.148823600000000056e+02
2.460000000000000000e+02,1.152878599999999949e+02
2.470000000000000000e+02,1.156926700000000068e+02
2.480000000000000000e+02,1.160967600000000033e+02
2.490000000000000000e+02,1.165001299999999986e+02
2.500000000000000000e+02,1.169027999999999992e+02
2.510000000000000000e+02,1.173047600000000017e+02
2.520000000000000000e+02,1.177060199999999952e+02
2.530000000000000000e+02,1.181065600000000018e+02
2.540000000000000000e+02,1.185063899999999961e+02
2.550000000000000000e+02,1.189055100000000067e+02
2.560000000000000000e+02,1.193039200000000051e+02
2.570000000000000000e+02,1.197016399999999976e+02
2.580000000000000000e+02,1.200986300000000000e+02
2.590000000000000000e+02,1.204949299999999965e+02
2.600000000000000000e+02,1.208905000000000030e+02
2.610000000000000000e+02,1.212853800000000035e+02
2.620000000000000000e+02,1.216795400000000029e+02
2.630000000000000000e+02,1.220730099999999965e+02
2.640000000000000000e+02,1.224657600000000031e+02
2.650000000000000000e+02,1.228578100000000006e+02
2.660000000000000000e+02,1.232491500000000002e+02
2.670000000000000000e+02,1.236397999999999939e+02
2.680000000000000000e+02,1.240297400000000039e+02
2.690000000000000000e+02,1.244189800000000048e+02
2.700000000000000000e+02,1.248075099999999935e+02
2.710000000000000000e+02,1.251953400000000016e+02
2.720000000000000000e+02,1.255824700000000007e+02
2.730000000000000000e+02,1.259688900000000018e+02
2.740000000000000000e+02,1.263546099999999939e+02
2.750000000000000000e+02,1.267396200000000022e+02
2.760000000000000000e+02,1.271239300000000014e+02
2.770000000000000000e+02,1.275075499999999948e+02
2.780000000000000000e+02,1.278904600000000045e+02
2.790000000000000000e+02,1.282726700000000051e+02
2.800000000000000000e+02,1.286541899999999998e+02
2.810000000000000000e+02,1.290349999999999966e+02
2.820000000000000000e+02,1.294151300000000049e+02
2.830000000000000000e+02,1.297945599999999899e+02
2.840000000000000000e+02,1.301732900000000086e+02
2.850000000000000000e+02,1.305513300000000072e+02
2.860000000000000000e+02,1.309286700000000110e+02
2.870000000000000000e+02,1.313053099999999915e+02
2.880000000000000000e+02,1.316812700000000120e+02
2.890000000000000000e+02,1.320565300000000093e+02
2.900000000000000000e+02,1.324310900000000117e+02
2.910000000000000000e+02,1.328049599999999941e+02
2.920000000000000000e+02,1.331781300000000101e+02
2.930000000000000000e+02,1.335506100000000060e+02
2.940000000000000000e+02,1.339223900000000071e+02
2.950000000000000000e+02,1.342934999999999945e+02
2.960000000000000000e+02,1.346639099999999871e+02
2.970000000000000000e+02,1.350336299999999881e+02
2.980000000000000000e+02,1.354026599999999974e+02
2.990000000000000000e+02,1.357710099999999898e+02
3.000000000000000000e+02,1.361386899999999969e+02
3.010000000000000000e+02,1.365056600000000060e+02
3.020000000000000000e+02,1.368719499999999982e+02
3.030000000000000000e+02,1.372375499999999988e+02
3.040000000000000000e+02,1.376024600000000078e+02
3.050000000000000000e+02,1.379666899999999998e+02
3.060000000000000000e+02,1.383302500000000066e+02
3.070000000000000000e+02,1.386931199999999933e+02
3.080000000000000000e+02,1.390552999999999884e+02
3.090000000000000000e+02,1.394167899999999918e+02
3.100000000000000000e+02,1.397776200000000131e+02
3.110000000000000000e+02,1.401377699999999891e+02
3.120000000000000000e+02,1.404972400000000050e+02
3.130000000000000000e+02,1.408560200000000009e+02
3.140000000000000000e+02,1.412141300000000115e+02
3.150000000000000000e+02,1.415715600000000052e+02
3.160000000000000000e+02,1.419283100000000104e+02
3.170000000000000000e+02,1.422844100000000083e+02
3.180000000000000000e+02,1.426398000000000081e+02
3.190000000000000000e+02,1.429945199999999943e+02
3.200000000000000000e+02,1.433485699999999952e+02
3.210000000000000000e+02,1.437019699999999887e+02
3.220000000000000000e+02,1.440546899999999937e+02
3.230000000000000000e+02,1.444067200000000071e+02
3.240000000000000000e+02,1.447580900000000099e+02
3.250000000000000000e+02,1.451088000000000022e+02
3.260000000000000000e+02,1.454588200000000029e+02
3.270000000000000000e+02,1.458081699999999898e+02
3.280000000000000000e+02,1.461568599999999947e+02
3.290000000000000000e+02,1.465048800000000142e+02
3.300000000000000000e+02,1.468522499999999980e+02
3.310000000000000000e+02,1.471989399999999932e+02
3.320000000000000000e+02,1.475449800000000096e+02
3.330000000000000000e+02,1.478903400000000090e+02
3.340000000000000000e+02,1.482350299999999947e+02
3.350000000000000000e+02,1.485790700000000015e+02
3.360000000000000000e+02,1.489224399999999946e+02
3.370000000000000000e+02,1.492651700000000119e+02
3.380000000000000000e+02,1.496072200000000123e+02
3.390000000000000000e+02,1.499486200000000053e+02
3.400000000000000000e+02,1.502893500000000131e+02
3.410000000000000000e+02,1.506294100000000071e+02
3.420000000000000000e+02,1.509688400000000001e+02
3.430000000000000000e+02,1.513076000000000079e+02
3.440000000000000000e+02,1.516457200000000114e+02
3.450000000000000000e+02,1.519831700000000012e+02
3.460000000000000000e+02,1.523199600000000089e+02
3.470000000000000000e+02,1.526561100000000124e+02
3.480000000000000000e+02,1.529915900000000022e+02
3.490000000000000000e+02,1.533264299999999878e+02
3.500000000000000000e+02,1.536606299999999976e+02
3.510000000000000000e+02,1.539941699999999969e+02
3.520000000000000000e+02,1.543270599999999888e+02
3.530000000000000000e+02,1.546593000000000018e+02
3.540000000000000000e+02,1.549908800000000042e+02
3.550000000000000000e+02,1.553218200000000024e+02
3.560000000000000000e+02,1.556521299999999997e+02
3.570000000000000000e+02,1.559817799999999863e+02
3.580000000000000000e+02,1.563107899999999972e+02
3.590000000000000000e+02,1.566391299999999944e+02
3.600000000000000000e+02,1.569668599999999969e+02
3.610000000000000000e+02,1.572939499999999953e+02
3.620000000000000000e+02,1.576203800000000115e+02
3.630000000000000000e+02,1.579461699999999951e+02
3.640000000000000000e+02,1.582713200000000029e+02
3.650000000000000000e+02,1.585958300000000065e+02
3.660000000000000000e+02,1.589197100000000091e+02
3.670000000000000000e+02,1.592429500000000075e+02
3.680000000000000000e+02,1.595655399999999986e+02
3.690000000000000000e+02,1.598874999999999886e+02
3.700000000000000000e+02,1.602088200000000029e+02
3.710000000000000000e+02,1.605295099999999877e+02
3.720000000000000000e+02,1.608495800000000031e+02
3.730000000000000000e+02,1.611690099999999859e+02
3.740000000000000000e+02,1.614877899999999897e+02
3.750000000000000000e+02,1.618059499999999957e+02
3.760000000000000000e+02,1.621234900000000039e+02
3.770000000000000000e+02,1.624403800000000047e+02
3.780000000000000000e+02,1.627566500000000076e+02
3.790000000000000000e+02,1.630723000000000127e+02
3.800000000000000000e+02,1.633873000000000104e+02
3.810000000000000000e+02,1.637017099999999914e+02
3.820000000000000000e+02,1.640154599999999903e+02
3.830000000000000000e+02,1.643285999999999945e+02
3.840000000000000000e+02,1.646411099999999976e+02
3.850000000000000000e+02,1.649530000000000030e+02
3.860000000000000000e+02,1.652642700000000104e+02
3.870000000000000000e+02,1.655749099999999885e+02
3.880000000000000000e+02,1.658849299999999971e+02
3.890000000000000000e+02,1.661943400000000111e+02
3.900000000000000000e+02,1.665031299999999987e+02
3.910000000000000000e+02,1.668112900000000138e+02
3.920000000000000000e+02,1.671188400000000058e+02
3.930000000000000000e+02,1.674257700000000000e+02
3.940000000000000000e+02,1.677320899999999995e+02
3.950000000000000000e+02,1.680377799999999979e+02
3.960000000000000000e+02,1.683428600000000017e+02
3.970000000000000000e+02,1.686473400000000140e+02
3.980000000000000000e+02,1.689512000000000000e+02
3.990000000000000000e+02,1.692544399999999882e+02
4.000000000000000000e+02,1.695570800000000133e+02
4.010000000000000000e+02,1.698591000000000122e+02
4.020000000000000000e+02,1.701605199999999911e+02
4.030000000000000000e+02,1.704613200000000006e+02
4.040000000000000000e+02,1.707615199999999902e+02
4.050000000000000000e+02,1.710611100000000135e+02
4.060000000000000000e+02,1.713600900000000138e+02
4.070000000000000000e+02,1.716584799999999973e+02
4.080000000000000000e+02,1.719562500000000114e+02
4.090000000000000000e+02,1.722534200000000055e+02
4.100000000000000000e+02,1.725499900000000082e+02
4.110000000000000000e+02,1.728459499999999878e+02
4.120000000000000000e+02,1.731413100000000043e+02
4.130000000000000000e+02,1.734360700000000008e+02
4.140000000000000000e+02,1.737302400000000091e+02
4.150000000000000000e+02,1.740237999999999943e+02
4.160000000000000000e+02,1.743167699999999911e+02
4.170000000000000000e+02,1.746091299999999933e+02
4.180000000000000000e+02,1.749008900000000040e+02
4.190000000000000000e+02,1.751920800000000042e+02
4.200000000000000000e+02,1.754826700000000130e+02
4.210000000000000000e+02,1.757726399999999956e+02
4.220000000000000000e+02,1.760620399999999961e+02
4.230000000000000000e+02,1.763508300000000020e+02
4.240000000000000000e+02,1.766390499999999975e+02
4.250000000000000000e+02,1.769266700000000014e+02
4.260000000000000000e+02,1.772136800000000108e+02
4.270000000000000000e+02,1.775001399999999876e+02
4.280000000000000000e+02,1.777859799999999950e+02
4.290000000000000000e+02,1.780712399999999889e+02
4.300000000000000000e+02,1.783559300000000007e+02
4.310000000000000000e+02,1.786400099999999895e+02
4.320000000000000000e+02,1.789235199999999963e+02
4.330000000000000000e+02,1.792064399999999864e+02
4.340000000000000000e+02,1.794887799999999913e+02
4.350000000000000000e+02,1.797705400000000111e+02
4.360000000000000000e+02,1.800517100000000141e+02
4.370000000000000000e+02,1.803323100000000068e+02
4.380000000000000000e+02,1.806123000000000047e+02
4.390000000000000000e+02,1.808917399999999986e+02
4.400000000000000000e+02,1.811705900000000042e+02
4.410000000000000000e+02,1.814488800000000026e+02
4.420000000000000000e+02,1.817265800000000127e+02
4.430000000000000000e+02,1.820037100000000123e+02
4.440000000000000000e+02,1.822802599999999984e+02
4.450000000000000000e+02,1.825562299999999993e+02
4.460000000000000000e+02,1.828316299999999899e+02
4.470000000000000000e+02,1.831064599999999984e+02
4.480000000000000000e+02,1.833807199999999966e+02
4.490000000000000000e+02,1.836544000000000096e+02
4.500000000000000000e+02,1.839275199999999870e+02
4.510000000000000000e+02,1.842000700000000109e+02
4.520000000000000000e+02,1.844720499999999959e+02
4.530000000000000000e+02,1.847434499999999957e+02
4.540000000000000000e+02,1.850142999999999915e+02
4.550000000000000000e+02,1.852845599999999990e+02
4.560000000000000000e+02,1.855542800000000057e+02
4.570000000000000000e+02,1.858234300000000019e+02
4.580000000000000000e+02,1.860920099999999877e+02
4.590000000000000000e+02,1.863600299999999947e+02
4.600000000000000000e+02,1.866274899999999946e+02
4.610000000000000000e+02,1.868943800000000124e+02
4.620000000000000000e+02,1.871607199999999978e+02
4.630000000000000000e+02,1.874265000000000043e+02
4.640000000000000000e+02,1.876917300000000068e+02
4.650000000000000000e+02,1.879563899999999990e+02
4.660000000000000000e+02,1.882204900000000123e+02
4.670000000000000000e+02,1.884840399999999931e+02
4.680000000000000000e+02,1.887470199999999920e+02
4.690000000000000000e+02,1.890094599999999900e+02
4.700000000000000000e+02,1.892713500000000124e+02
4.710000000000000000e+02,1.895326799999999992e+02
4.720000000000000000e+02,1.897934600000000103e+02
4.730000000000000000e+02,1.900536800000000142e+02
4.740000000000000000e+02,1.903133699999999919e+02
4.750000000000000000e+02,1.905724899999999877e+02
4.760000000000000000e+02,1.908310700000000111e+02
4.770000000000000000e+02,1.910891000000000020e+02
4.780000000000000000e+02,1.913465700000000140e+02
4.790000000000000000e+02,1.916035200000000032e+02
4.800000000000000000e+02,1.918599100000000135e+02
4.810000000000000000e+02,1.921157499999999914e+02
4.820000000000000000e+02,1.923710499999999968e+02
4.830000000000000000e+02,1.926258100000000013e+02
4.840000000000000000e+02,1.928800400000000081e+02
4.850000000000000000e+02,1.931337100000000078e+02
4.860000000000000000e+02,1.933868400000000065e+02
4.870000000000000000e+02,1.936394300000000044e+02
4.880000000000000000e+02,1.938914900000000046e+02
4.890000000000000000e+02,1.941430100000000039e+02
4.900000000000000000e+02,1.943940000000000055e+02
4.910000000000000000e+02,1.946444400000000030e+02
4.920000000000000000e+02,1.948943299999999965e+02
4.930000000000000000e+02,1.951437099999999987e+02
4.940000000000000000e+02,1.953925500000000000e+02
4.950000000000000000e+02,1.956408500000000004e+02
4.960000000000000000e+02,1.958886300000000062e+02
4.970000000000000000e+02,1.961358600000000081e+02
4.980000000000000000e+02,1.963825799999999902e+02
4.990000000000000000e+02,1.966287499999999966e+02
5.000000000000000000e+02,1.968744000000000085e+02
5.010000000000000000e+02,1.971195400000000006e+02
5.020000000000000000e+02,1.973641200000000140e+02
5.030000000000000000e+02,1.976082000000000107e+02
5.040000000000000000e+02,1.978517500000000098e+02
5.050000000000000000e+02,1.980947600000000079e+02
5.060000000000000000e+02,1.983372500000000116e+02
5.070000000000000000e+02,1.985792099999999891e+02
5.080000000000000000e+02,1.988206600000000037e+02
5.090000000000000000e+02,1.990615999999999985e+02
5.100000000000000000e+02,1.993019899999999893e+02
5.110000000000000000e+02,1.995418699999999887e+02
5.120000000000000000e+02,1.997812299999999937e+02
5.130000000000000000e+02,2.000200800000000072e+02
5.140000000000000000e+02,2.002584200000000010e+02
5.150000000000000000e+02,2.004962299999999971e+02
5.160000000000000000e+02,2.007335199999999986e+02
5.170000000000000000e+02,2.009702900000000056e+02
5.180000000000000000e+02,2.012065599999999961e+02
5.190000000000000000e+02,2.014423199999999952e+02
5.200000000000000000e+02,2.016775499999999965e+02
5.210000000000000000e+02,2.019122800000000097e+02
5.220000000000000000e+02,2.021465000000000032e+02
5.230000000000000000e+02,2.023802000000000021e+02
5.240000000000000000e+02,2.026133900000000096e+02
5.250000000000000000e+02,2.028460699999999974e+02
5.260000000000000000e+02,2.030782600000000002e+02
5.270000000000000000e+02,2.033099200000000053e+02
5.280000000000000000e+02,2.035410899999999970e+02
5.290000000000000000e+02,2.037717600000000004e+02
5.300000000000000000e+02,2.040019100000000094e+02
5.310000000000000000e+02,2.042315700000000049e+02
5.320000000000000000e+02,2.044607100000000059e+02
5.330000000000000000e+02,2.046893599999999935e+02
5.340000000000000000e+02,2.049174999999999898e+02
5.350000000000000000e+02,2.051451399999999978e+02
5.360000000000000000e+02,2.053722799999999893e+02
5.370000000000000000e+02,2.055989399999999989e+02
5.380000000000000000e+02,2.058250700000000109e+02
5.390000000000000000e+02,2.060507200000000125e+02
5.400000000000000000e+02,2.062758800000000008e+02
5.410000000000000000e+02,2.065005299999999977e+02
5.420000000000000000e+02,2.067247000000000128e+02
5.430000000000000000e+02,2.069483600000000081e+02
5.440000000000000000e+02,2.071715399999999931e+02
5.450000000000000000e+02,2.073942299999999932e+02
5.460000000000000000e+02,2.076164100000000019e+02
5.470000000000000000e+02,2.078381200000000035e+02
5.480000000000000000e+02,2.080593299999999886e+02
5.490000000000000000e+02,2.082800400000000138e+02
5.500000000000000000e+02,2.085002700000000004e+02
5.510000000000000000e+02,2.087200200000000052e+02
5.520000000000000000e+02,2.089392899999999997e+02
5.530000000000000000e+02,2.091580500000000029e+02
5.540000000000000000e+02,2.093763399999999990e+02
5.550000000000000000e+02,2.095941500000000133e+02
5.560000000000000000e+02,2.098114600000000110e+02
5.570000000000000000e+02,2.100283100000000047e+02
5.580000000000000000e+02,2.102446600000000103e+02
5.590000000000000000e+02,2.104605300000000057e+02
5.600000000000000000e+02,2.106759199999999908e+02
5.610000000000000000e+02,2.108908399999999972e+02
5.620000000000000000e+02,2.111052699999999902e+02
5.630000000000000000e+02,2.113192300000000046e+02
5.640000000000000000e+02,2.115327100000000087e+02
5.650000000000000000e+02,2.117457100000000025e+02
5.660000000000000000e+02,2.119582499999999925e+02
5.670000000000000000e+02,2.121702999999999975e+02
5.680000000000000000e+02,2.123818799999999953e+02
5.690000000000000000e+02,2.125929899999999861e+02
5.700000000000000000e+02,2.128036299999999983e+02
5.710000000000000000e+02,2.130137900000000002e+02
5.720000000000000000e+02,2.132235000000000014e+02
5.730000000000000000e+02,2.134327199999999891e+02
5.740000000000000000e+02,2.136414800000000014e+02
5.750000000000000000e+02,2.138497600000000034e+02
5.760000000000000000e+02,2.140575900000000047e+02
5.770000000000000000e+02,2.142649399999999957e+02
5.780000000000000000e+02,2.144718300000000113e+02
5.790000000000000000e+02,2.146782499999999914e+02
5.800000000000000000e+02,2.148842199999999991e+02
5.810000000000000000e+02,2.150897099999999966e+02
5.820000000000000000e+02,2.152947399999999902e+02
5.830000000000000000e+02,2.154993100000000084e+02
5.840000000000000000e+02,2.157034299999999973e+02
5.850000000000000000e+02,2.159070900000000108e+02
5.860000000000000000e+02,2.161102799999999888e+02
5.870000000000000000e+02,2.163129999999999882e+02
5.880000000000000000e+02,2.165152899999999931e+02
5.890000000000000000e+02,2.167170999999999879e+02
5.900000000000000000e+02,2.169184700000000134e+02
5.910000000000000000e+02,2.171193800000000067e+02
5.920000000000000000e+02,2.173198399999999992e+02
5.930000000000000000e+02,2.175198499999999910e+02
5.940000000000000000e+02,2.177193900000000042e+02
5.950000000000000000e+02,2.179184999999999945e+02
5.960000000000000000e+02,2.181171400000000062e+02
5.970000000000000000e+02,2.183153499999999951e+02
5.980000000000000000e+02,2.185130900000000054e+02
5.990000000000000000e+02,2.187103999999999928e+02