# Time [s], Temperature [C]
1.000000000000000000e+00,2.500000000000000000e+01
2.000000000000000000e+00,2.500000000000000000e+01
3.000000000000000000e+00,2.500000000000000000e+01
4.000000000000000000e+00,2.500000000000000000e+01
5.000000000000000000e+00,2.500000800000000112e+01
6.000000000000000000e+00,2.500003999999999849e+01
7.000000000000000000e+00,2.500018299999999982e+01
8.000000000000000000e+00,2.500066400000000044e+01
9.000000000000000000e+00,2.500200999999999851e+01
1.000000000000000000e+01,2.500526400000000038e+01
1.100000000000000000e+01,2.501219700000000046e+01
1.200000000000000000e+01,2.502549700000000144e+01
1.300000000000000000e+01,2.504884699999999853e+01
1.400000000000000000e+01,2.508690999999999960e+01
1.500000000000000000e+01,2.514520299999999864e+01
1.600000000000000000e+01,2.522989700000000113e+01
1.700000000000000000e+01,2.535632299999999972e+01
1.800000000000000000e+01,2.552097699999999847e+01
1.900000000000000000e+01,2.573271199999999936e+01
2.000000000000000000e+01,2.599842100000000045e+01
2.100000000000000000e+01,2.632419000000000153e+01
2.200000000000000000e+01,2.671557400000000015e+01
2.300000000000000000e+01,2.717752099999999871e+01
2.400000000000000000e+01,2.771431499999999915e+01
2.500000000000000000e+01,2.832959400000000016e+01
2.600000000000000000e+01,2.902624899999999997e+01
2.700000000000000000e+01,2.980651900000000154e+01
2.800000000000000000e+01,3.067199300000000051e+01
2.900000000000000000e+01,3.162355799999999917e+01
3.000000000000000000e+01,3.266161300000000267e+01
3.100000000000000000e+01,3.378601100000000201e+01
3.200000000000000000e+01,3.499618900000000110e+01
3.300000000000000000e+01,3.629131699999999938e+01
3.400000000000000000e+01,3.767009699999999839e+01
3.500000000000000000e+01,3.913104200000000077e+01
3.600000000000000000e+01,4.067245499999999936e+01
3.700000000000000000e+01,4.229241199999999878e+01
3.800000000000000000e+01,4.398881899999999945e+01
3.900000000000000000e+01,4.575945699999999761e+01
4.000000000000000000e+01,4.760213900000000109e+01
4.100000000000000000e+01,4.951453399999999760e+01
4.200000000000000000e+01,5.149418599999999913e+01
4.300000000000000000e+01,5.353869600000000162e+01
4.400000000000000000e+01,5.564564500000000180e+01
4.500000000000000000e+01,5.781267499999999870e+01
4.600000000000000000e+01,6.003764000000000323e+01
4.700000000000000000e+01,6.231808900000000051e+01
4.800000000000000000e+01,6.465169500000000369e+01
4.900000000000000000e+01,6.703630800000000534e+01
5.000000000000000000e+01,6.946972700000000600e+01
5.100000000000000000e+01,7.194990500000000111e+01
5.200000000000000000e+01,7.447461699999999496e+01
5.300000000000000000e+01,7.704184700000000419e+01
5.400000000000000000e+01,7.964984900000000323e+01
5.500000000000000000e+01,8.229650100000000634e+01
5.600000000000000000e+01,8.497992700000000355e+01
5.700000000000000000e+01,8.769842500000000030e+01
5.800000000000000000e+01,9.045033300000000054e+01
5.900000000000000000e+01,9.323389400000000649e+01
6.000000000000000000e+01,9.604751600000000167e+01
6.100000000000000000e+01,9.888951900000000705e+01
6.200000000000000000e+01,1.017582699999999960e+02
6.300000000000000000e+01,1.046523099999999999e+02
6.400000000000000000e+01,1.075704300000000018e+02
6.500000000000000000e+01,1.105109300000000019e+02
6.600000000000000000e+01,1.134725200000000029e+02
6.700000000000000000e+01,1.164541300000000064e+02
6.800000000000000000e+01,1.194542000000000002e+02
6.900000000000000000e+01,1.224733399999999932e+02
7.000000000000000000e+01,1.255077600000000047e+02
7.100000000000000000e+01,1.285572099999999978e+02
7.200000000000000000e+01,1.316203899999999862e+02
7.300000000000000000e+01,1.346963000000000079e+02
7.400000000000000000e+01,1.377842899999999986e+02
7.500000000000000000e+01,1.408834699999999884e+02
7.600000000000000000e+01,1.439932100000000048e+02
7.700000000000000000e+01,1.471126099999999894e+02
7.800000000000000000e+01,1.502412099999999953e+02
7.900000000000000000e+01,1.533781999999999925e+02
8.000000000000000000e+01,1.565227399999999989e+02
8.100000000000000000e+01,1.596741000000000099e+02
8.200000000000000000e+01,1.628313400000000115e+02
8.300000000000000000e+01,1.659935299999999927e+02
8.400000000000000000e+01,1.691596999999999866e+02
8.500000000000000000e+01,1.723292700000000082e+02
8.600000000000000000e+01,1.755013700000000085e+02
8.700000000000000000e+01,1.786751299999999958e+02
8.800000000000000000e+01,1.818497800000000097e+02
8.900000000000000000e+01,1.850245700000000113e+02
9.000000000000000000e+01,1.881987599999999929e+02
9.100000000000000000e+01,1.913715200000000038e+02
9.200000000000000000e+01,1.945422800000000052e+02
9.300000000000000000e+01,1.977102800000000116e+02
9.400000000000000000e+01,2.008747400000000027e+02
9.500000000000000000e+01,2.040349300000000028e+02
9.600000000000000000e+01,2.071901200000000074e+02
9.700000000000000000e+01,2.103398599999999874e+02
9.800000000000000000e+01,2.134833700000000078e+02
9.900000000000000000e+01,2.166198899999999981e+02
1.000000000000000000e+02,2.197488400000000013e+02
1.010000000000000000e+02,2.228695800000000133e+02
1.020000000000000000e+02,2.259814299999999889e+02
1.030000000000000000e+02,2.290838599999999872e+02
1.040000000000000000e+02,2.321762500000000102e+02
1.050000000000000000e+02,2.352579200000000128e+02
1.060000000000000000e+02,2.383281599999999969e+02
1.070000000000000000e+02,2.413864000000000090e+02
1.080000000000000000e+02,2.444317599999999970e+02
1.090000000000000000e+02,2.474637800000000141e+02
1.100000000000000000e+02,2.504816899999999862e+02
1.110000000000000000e+02,2.534846000000000004e+02
1.120000000000000000e+02,2.564720800000000054e+02
1.130000000000000000e+02,2.594430199999999900e+02
1.140000000000000000e+02,2.623969399999999723e+02
1.150000000000000000e+02,2.653330100000000016e+02
1.160000000000000000e+02,2.682501800000000003e+02
1.170000000000000000e+02,2.711477399999999989e+02
1.180000000000000000e+02,2.740245699999999829e+02
1.190000000000000000e+02,2.768798800000000142e+02
1.200000000000000000e+02,2.797123700000000213e+02
1.210000000000000000e+02,2.825209399999999960e+02
1.220000000000000000e+02,2.853043200000000184e+02
1.230000000000000000e+02,2.880611599999999726e+02
1.240000000000000000e+02,2.907904100000000085e+02
1.250000000000000000e+02,2.934910300000000234e+02
1.260000000000000000e+02,2.961633600000000115e+02
1.270000000000000000e+02,2.988068799999999783e+02
1.280000000000000000e+02,3.014197399999999902e+02
1.290000000000000000e+02,3.039982299999999782e+02
1.300000000000000000e+02,3.065385099999999738e+02
1.310000000000000000e+02,3.090372899999999845e+02
1.320000000000000000e+02,3.114918200000000184e+02
1.330000000000000000e+02,3.138994099999999889e+02
1.340000000000000000e+02,3.162576599999999871e+02
1.350000000000000000e+02,3.185640599999999836e+02
1.360000000000000000e+02,3.208162500000000250e+02
1.370000000000000000e+02,3.230116899999999873e+02
1.380000000000000000e+02,3.251481600000000185e+02
1.390000000000000000e+02,3.272233600000000138e+02
1.400000000000000000e+02,3.292355299999999829e+02
1.410000000000000000e+02,3.311830699999999865e+02
1.420000000000000000e+02,3.330648499999999785e+02
1.430000000000000000e+02,3.348801000000000272e+02
1.440000000000000000e+02,3.366285100000000057e+02
1.450000000000000000e+02,3.383105499999999779e+02
1.460000000000000000e+02,3.399271499999999833e+02
1.470000000000000000e+02,3.414798299999999927e+02
1.480000000000000000e+02,3.429706100000000220e+02
1.490000000000000000e+02,3.444023700000000190e+02
1.500000000000000000e+02,3.457783200000000079e+02
1.510000000000000000e+02,3.471019900000000007e+02
1.520000000000000000e+02,3.483776899999999728e+02
1.530000000000000000e+02,3.496095599999999877e+02
1.540000000000000000e+02,3.508023699999999963e+02
1.550000000000000000e+02,3.519609100000000126e+02
1.560000000000000000e+02,3.530901200000000131e+02
1.570000000000000000e+02,3.541949500000000057e+02
1.580000000000000000e+02,3.552802399999999921e+02
1.590000000000000000e+02,3.563508600000000115e+02
1.600000000000000000e+02,3.574114700000000084e+02
1.610000000000000000e+02,3.585914000000000215e+02
1.620000000000000000e+02,3.597228999999999814e+02
1.630000000000000000e+02,3.608304400000000101e+02
1.640000000000000000e+02,3.619211099999999988e+02
1.650000000000000000e+02,3.630060100000000034e+02
1.660000000000000000e+02,3.640989999999999895e+02
1.670000000000000000e+02,3.652085000000000150e+02
1.680000000000000000e+02,3.663399999999999750e+02
1.690000000000000000e+02,3.674972500000000082e+02
1.700000000000000000e+02,3.686836500000000001e+02
1.710000000000000000e+02,3.699021000000000186e+02
1.720000000000000000e+02,3.711556100000000242e+02
1.730000000000000000e+02,3.724471100000000092e+02
1.740000000000000000e+02,3.737803299999999922e+02
1.750000000000000000e+02,3.751580799999999840e+02
1.760000000000000000e+02,3.765849900000000048e+02
1.770000000000000000e+02,3.780645400000000222e+02
1.780000000000000000e+02,3.796019000000000005e+02
1.790000000000000000e+02,3.812017799999999852e+02
1.800000000000000000e+02,3.828691999999999780e+02
1.810000000000000000e+02,3.846114200000000096e+02
1.820000000000000000e+02,3.864351500000000215e+02
1.830000000000000000e+02,3.883475300000000061e+02
1.840000000000000000e+02,3.903584900000000175e+02
1.850000000000000000e+02,3.924778699999999958e+02
1.860000000000000000e+02,3.947149400000000128e+02
1.870000000000000000e+02,3.970844999999999914e+02
1.880000000000000000e+02,3.996006199999999922e+02
1.890000000000000000e+02,4.022763400000000047e+02
1.900000000000000000e+02,4.051312300000000164e+02
1.910000000000000000e+02,4.081851500000000215e+02
1.920000000000000000e+02,4.114576700000000073e+02
1.930000000000000000e+02,4.149757700000000114e+02
1.940000000000000000e+02,4.187596100000000092e+02
1.950000000000000000e+02,4.228345899999999915e+02
1.960000000000000000e+02,4.272215299999999729e+02
1.970000000000000000e+02,4.319364299999999730e+02
1.980000000000000000e+02,4.369818399999999770e+02
1.990000000000000000e+02,4.423426499999999919e+02
2.000000000000000000e+02,4.479819299999999771e+02
2.010000000000000000e+02,4.538350199999999859e+02
2.020000000000000000e+02,4.598092300000000137e+02
2.030000000000000000e+02,4.657954100000000039e+02
2.040000000000000000e+02,4.716924099999999953e+02
2.050000000000000000e+02,4.774270300000000020e+02
2.060000000000000000e+02,4.829581600000000208e+02
2.070000000000000000e+02,4.882806400000000053e+02
2.080000000000000000e+02,4.934089099999999917e+02
2.090000000000000000e+02,4.983628800000000183e+02
2.100000000000000000e+02,5.031637900000000059e+02
2.110000000000000000e+02,5.078288299999999822e+02
2.120000000000000000e+02,5.123726799999999457e+02
2.130000000000000000e+02,5.168069500000000289e+02
2.140000000000000000e+02,5.211412400000000389e+02
2.150000000000000000e+02,5.253825100000000248e+02
2.160000000000000000e+02,5.295382700000000114e+02
2.170000000000000000e+02,5.336140100000000075e+02
2.180000000000000000e+02,5.376138899999999694e+02
2.190000000000000000e+02,5.415424799999999550e+02
2.200000000000000000e+02,5.454030199999999695e+02
2.210000000000000000e+02,5.491988499999999931e+02
2.220000000000000000e+02,5.529332900000000564e+02
2.230000000000000000e+02,5.566080899999999474e+02
2.240000000000000000e+02,5.602264999999999873e+02
2.250000000000000000e+02,5.637905899999999519e+02
2.260000000000000000e+02,5.673019399999999450e+02
2.270000000000000000e+02,5.707623899999999821e+02
2.280000000000000000e+02,5.741741899999999532e+02
2.290000000000000000e+02,5.775380199999999604e+02
2.300000000000000000e+02,5.808571799999999712e+02
2.310000000000000000e+02,5.841307399999999461e+02
2.320000000000000000e+02,5.873604699999999639e+02
2.330000000000000000e+02,5.905482200000000148e+02
2.340000000000000000e+02,5.936942099999999982e+02
2.350000000000000000e+02,5.967997400000000425e+02
2.360000000000000000e+02,5.998663900000000240e+02
2.370000000000000000e+02,6.028939199999999801e+02
2.380000000000000000e+02,6.058837899999999763e+02
2.390000000000000000e+02,6.088364299999999503e+02
2.400000000000000000e+02,6.117521400000000540e+02
2.410000000000000000e+02,6.146328700000000254e+02
2.420000000000000000e+02,6.174780899999999519e+02
2.430000000000000000e+02,6.202888799999999492e+02
2.440000000000000000e+02,6.230660400000000436e+02
2.450000000000000000e+02,6.258096900000000460e+02
2.460000000000000000e+02,6.285204499999999825e+02
2.470000000000000000e+02,6.311981799999999794e+02
2.480000000000000000e+02,6.338444200000000137e+02
2.490000000000000000e+02,6.364590500000000475e+02
2.500000000000000000e+02,6.390427899999999681e+02
2.510000000000000000e+02,6.415957600000000411e+02
2.520000000000000000e+02,6.441185299999999643e+02
2.530000000000000000e+02,6.466115700000000288e+02
2.540000000000000000e+02,6.490751999999999953e+02
2.550000000000000000e+02,6.515096999999999525e+02
2.560000000000000000e+02,6.539151600000000144e+02
2.570000000000000000e+02,6.562919900000000553e+02
2.580000000000000000e+02,6.586409300000000258e+02
2.590000000000000000e+02,6.609625200000000405e+02
2.600000000000000000e+02,6.632564700000000357e+02
2.610000000000000000e+02,6.655233799999999746e+02
2.620000000000000000e+02,6.677632399999999961e+02
2.630000000000000000e+02,6.699768699999999626e+02
2.640000000000000000e+02,6.721639999999999873e+02
2.650000000000000000e+02,6.743253200000000334e+02
2.660000000000000000e+02,6.764609400000000505e+02
2.670000000000000000e+02,6.785712300000000141e+02
2.680000000000000000e+02,6.806564899999999625e+02
2.690000000000000000e+02,6.827169800000000350e+02
2.700000000000000000e+02,6.847526199999999790e+02
2.710000000000000000e+02,6.867640999999999849e+02
2.720000000000000000e+02,6.887515300000000025e+02
2.730000000000000000e+02,6.907153299999999945e+02
2.740000000000000000e+02,6.926557000000000244e+02
2.750000000000000000e+02,6.945728800000000547e+02
2.760000000000000000e+02,6.964668000000000347e+02
2.770000000000000000e+02,6.983381299999999783e+02
2.780000000000000000e+02,7.001872600000000375e+02
2.790000000000000000e+02,7.020135500000000093e+02
2.800000000000000000e+02,7.038181799999999839e+02
2.810000000000000000e+02,7.056008900000000494e+02
2.820000000000000000e+02,7.073620600000000422e+02
2.830000000000000000e+02,7.091019900000000007e+02
2.840000000000000000e+02,7.108207400000000007e+02
2.850000000000000000e+02,7.125186200000000554e+02
2.860000000000000000e+02,7.141957400000000007e+02
2.870000000000000000e+02,7.158524200000000519e+02
2.880000000000000000e+02,7.174891400000000203e+02
2.890000000000000000e+02,7.191058299999999690e+02
2.900000000000000000e+02,7.207028199999999742e+02
2.910000000000000000e+02,7.222800899999999729e+02
2.920000000000000000e+02,7.238381299999999783e+02
2.930000000000000000e+02,7.253771400000000540e+02
2.940000000000000000e+02,7.268972199999999475e+02
2.950000000000000000e+02,7.283987399999999752e+02
2.960000000000000000e+02,7.298813499999999976e+02
2.970000000000000000e+02,7.313459500000000162e+02
2.980000000000000000e+02,7.327925400000000309e+02
2.990000000000000000e+02,7.342211300000000165e+02
3.000000000000000000e+02,7.356321400000000494e+02
3.010000000000000000e+02,7.370255700000000161e+02
3.020000000000000000e+02,7.384018600000000561e+02
3.030000000000000000e+02,7.397608599999999797e+02
3.040000000000000000e+02,7.411030299999999897e+02
3.050000000000000000e+02,7.424285899999999856e+02
3.060000000000000000e+02,7.437376100000000179e+02
3.070000000000000000e+02,7.450302100000000110e+02
3.080000000000000000e+02,7.463066400000000158e+02
3.090000000000000000e+02,7.475670199999999568e+02
3.100000000000000000e+02,7.488117700000000241e+02
3.110000000000000000e+02,7.500408899999999903e+02
3.120000000000000000e+02,7.512545199999999568e+02
3.130000000000000000e+02,7.524529400000000123e+02
3.140000000000000000e+02,7.536362900000000309e+02
3.150000000000000000e+02,7.548047500000000127e+02
3.160000000000000000e+02,7.559583099999999831e+02
3.170000000000000000e+02,7.570974700000000439e+02
3.180000000000000000e+02,7.582222299999999677e+02
3.190000000000000000e+02,7.593328900000000203e+02
3.200000000000000000e+02,7.604292000000000371e+02
3.210000000000000000e+02,7.615118999999999687e+02
3.220000000000000000e+02,7.625808700000000044e+02
3.230000000000000000e+02,7.636359899999999925e+02
3.240000000000000000e+02,7.646779199999999719e+02
3.250000000000000000e+02,7.657066700000000310e+02
3.260000000000000000e+02,7.667221100000000433e+02
3.270000000000000000e+02,7.677247899999999845e+02
3.280000000000000000e+02,7.687145400000000564e+02
3.290000000000000000e+02,7.696918299999999817e+02
3.300000000000000000e+02,7.706564300000000003e+02
3.310000000000000000e+02,7.716087599999999611e+02
3.320000000000000000e+02,7.725489499999999907e+02
3.330000000000000000e+02,7.734770499999999629e+02
3.340000000000000000e+02,7.743933100000000422e+02
3.350000000000000000e+02,7.752976700000000392e+02
3.360000000000000000e+02,7.761904899999999543e+02
3.370000000000000000e+02,7.770717799999999897e+02
3.380000000000000000e+02,7.779417700000000195e+02
3.390000000000000000e+02,7.788006000000000313e+02
3.400000000000000000e+02,7.796483200000000124e+02
3.410000000000000000e+02,7.804850500000000011e+02
3.420000000000000000e+02,7.813111000000000104e+02
3.430000000000000000e+02,7.821263999999999896e+02
3.440000000000000000e+02,7.829311500000000024e+02
3.450000000000000000e+02,7.837255199999999604e+02
3.460000000000000000e+02,7.845095800000000281e+02
3.470000000000000000e+02,7.852835099999999784e+02
3.480000000000000000e+02,7.860473600000000260e+02
3.490000000000000000e+02,7.868012099999999691e+02
3.500000000000000000e+02,7.875454099999999471e+02
3.510000000000000000e+02,7.882799700000000485e+02
3.520000000000000000e+02,7.890048799999999574e+02
3.530000000000000000e+02,7.897203399999999647e+02
3.540000000000000000e+02,7.904264500000000453e+02
3.550000000000000000e+02,7.911235400000000482e+02
3.560000000000000000e+02,7.918114000000000487e+02
3.570000000000000000e+02,7.924903600000000097e+02
3.580000000000000000e+02,7.931603400000000192e+02
3.590000000000000000e+02,7.938217200000000275e+02
3.600000000000000000e+02,7.944742999999999711e+02
3.610000000000000000e+02,7.951184100000000399e+02
3.620000000000000000e+02,7.957540900000000192e+02
3.630000000000000000e+02,7.963814099999999598e+02
3.640000000000000000e+02,7.970006700000000137e+02
3.650000000000000000e+02,7.976115700000000288e+02
3.660000000000000000e+02,7.982146599999999808e+02
3.670000000000000000e+02,7.988096900000000460e+02
3.680000000000000000e+02,7.993969700000000103e+02
3.690000000000000000e+02,7.999764999999999873e+02
3.700000000000000000e+02,8.005483400000000529e+02
3.710000000000000000e+02,8.011127900000000182e+02
3.720000000000000000e+02,8.016697400000000471e+02
3.730000000000000000e+02,8.022193600000000515e+02
3.740000000000000000e+02,8.027617199999999684e+02
3.750000000000000000e+02,8.032969399999999496e+02
3.760000000000000000e+02,8.038251299999999446e+02
3.770000000000000000e+02,8.043462500000000546e+02
3.780000000000000000e+02,8.048605300000000398e+02
3.790000000000000000e+02,8.053680399999999509e+02
3.800000000000000000e+02,8.058688399999999774e+02
3.810000000000000000e+02,8.063629799999999932e+02
3.820000000000000000e+02,8.068505900000000111e+02
3.830000000000000000e+02,8.073317899999999554e+02
3.840000000000000000e+02,8.078066400000000158e+02
3.850000000000000000e+02,8.082751500000000533e+02
3.860000000000000000e+02,8.087373700000000554e+02
3.870000000000000000e+02,8.091934800000000223e+02
3.880000000000000000e+02,8.096435500000000047e+02
3.890000000000000000e+02,8.100877100000000155e+02
3.900000000000000000e+02,8.105259399999999914e+02
3.910000000000000000e+02,8.109583099999999831e+02
3.920000000000000000e+02,8.113850099999999657e+02
3.930000000000000000e+02,8.118059700000000021e+02
3.940000000000000000e+02,8.122213699999999790e+02
3.950000000000000000e+02,8.126312299999999595e+02
3.960000000000000000e+02,8.130356399999999439e+02
3.970000000000000000e+02,8.134346299999999701e+02
3.980000000000000000e+02,8.138283699999999499e+02
3.990000000000000000e+02,8.142168000000000347e+02
4.000000000000000000e+02,8.146000999999999976e+02
4.010000000000000000e+02,8.149782099999999900e+02
4.020000000000000000e+02,8.153513199999999870e+02
4.030000000000000000e+02,8.157194200000000137e+02
4.040000000000000000e+02,8.160826399999999694e+02
4.050000000000000000e+02,8.164409799999999677e+02
4.060000000000000000e+02,8.167944899999999961e+02
4.070000000000000000e+02,8.171433100000000422e+02
4.080000000000000000e+02,8.174875500000000557e+02
4.090000000000000000e+02,8.178270899999999983e+02
4.100000000000000000e+02,8.181621099999999842e+02
4.110000000000000000e+02,8.184926100000000133e+02
4.120000000000000000e+02,8.188187299999999595e+02
4.130000000000000000e+02,8.191404400000000123e+02
4.140000000000000000e+02,8.194578900000000203e+02
4.150000000000000000e+02,8.197710600000000341e+02
4.160000000000000000e+02,8.200800199999999904e+02
4.170000000000000000e+02,8.203848299999999654e+02
4.180000000000000000e+02,8.206856099999999969e+02
4.190000000000000000e+02,8.209823000000000093e+02
4.200000000000000000e+02,8.212749599999999646e+02
4.210000000000000000e+02,8.215637799999999515e+02
4.220000000000000000e+02,8.218486900000000333e+02
4.230000000000000000e+02,8.221296999999999571e+02
4.240000000000000000e+02,8.224070400000000518e+02
4.250000000000000000e+02,8.226806000000000267e+02
4.260000000000000000e+02,8.229504399999999578e+02
4.270000000000000000e+02,8.232167399999999589e+02
4.280000000000000000e+02,8.234793700000000172e+02
4.290000000000000000e+02,8.237385299999999688e+02
4.300000000000000000e+02,8.239941400000000158e+02
4.310000000000000000e+02,8.242463999999999942e+02
4.320000000000000000e+02,8.244951800000000048e+02
4.330000000000000000e+02,8.247405999999999722e+02
4.340000000000000000e+02,8.249827900000000227e+02
4.350000000000000000e+02,8.252216799999999921e+02
4.360000000000000000e+02,8.254573400000000447e+02
4.370000000000000000e+02,8.256898200000000543e+02
4.380000000000000000e+02,8.259191299999999956e+02
4.390000000000000000e+02,8.261453900000000203e+02
4.400000000000000000e+02,8.263685900000000402e+02
4.410000000000000000e+02,8.265888099999999667e+02
4.420000000000000000e+02,8.268060299999999643e+02
4.430000000000000000e+02,8.270203199999999697e+02
4.440000000000000000e+02,8.272316899999999578e+02
4.450000000000000000e+02,8.274401900000000296e+02
4.460000000000000000e+02,8.276459399999999960e+02
4.470000000000000000e+02,8.278488800000000083e+02
4.480000000000000000e+02,8.280490700000000288e+02
4.490000000000000000e+02,8.282465200000000323e+02
4.500000000000000000e+02,8.284413500000000568e+02
4.510000000000000000e+02,8.286335400000000391e+02
4.520000000000000000e+02,8.288231200000000172e+02
4.530000000000000000e+02,8.290101300000000037e+02
4.540000000000000000e+02,8.291946400000000494e+02
4.550000000000000000e+02,8.293765899999999647e+02
4.560000000000000000e+02,8.295561500000000024e+02
4.570000000000000000e+02,8.297332199999999602e+02
4.580000000000000000e+02,8.299079000000000406e+02
4.590000000000000000e+02,8.300801999999999907e+02
4.600000000000000000e+02,8.302501800000000003e+02
4.610000000000000000e+02,8.304179100000000062e+02
4.620000000000000000e+02,8.305833099999999831e+02
4.630000000000000000e+02,8.307465200000000323e+02
4.640000000000000000e+02,8.309074699999999893e+02
4.650000000000000000e+02,8.310662200000000439e+02
4.660000000000000000e+02,8.312228400000000192e+02
4.670000000000000000e+02,8.313773200000000543e+02
4.680000000000000000e+02,8.315297199999999975e+02
4.690000000000000000e+02,8.316801100000000133e+02
4.700000000000000000e+02,8.318283699999999499e+02
4.710000000000000000e+02,8.319746699999999464e+02
4.720000000000000000e+02,8.321189600000000155e+02
4.730000000000000000e+02,8.322612900000000309e+02
4.740000000000000000e+02,8.324017300000000432e+02
4.750000000000000000e+02,8.325402199999999766e+02
4.760000000000000000e+02,8.326768200000000206e+02
4.770000000000000000e+02,8.328115800000000490e+02
4.780000000000000000e+02,8.329445200000000114e+02
4.790000000000000000e+02,8.330756199999999581e+02
4.800000000000000000e+02,8.332049600000000282e+02
4.810000000000000000e+02,8.333325800000000072e+02
4.820000000000000000e+02,8.334584399999999960e+02
4.830000000000000000e+02,8.335825800000000072e+02
4.840000000000000000e+02,8.337050199999999904e+02
4.850000000000000000e+02,8.338258100000000468e+02
4.860000000000000000e+02,8.339449499999999489e+02
4.870000000000000000e+02,8.340625000000000000e+02
4.880000000000000000e+02,8.341784099999999853e+02
4.890000000000000000e+02,8.342927200000000312e+02
4.900000000000000000e+02,8.344055200000000241e+02
4.910000000000000000e+02,8.345167800000000398e+02
4.920000000000000000e+02,8.346265300000000025e+02
4.930000000000000000e+02,8.347347999999999502e+02
4.940000000000000000e+02,8.348415499999999838e+02
4.950000000000000000e+02,8.349469000000000278e+02
4.960000000000000000e+02,8.350507800000000316e+02
4.970000000000000000e+02,8.351532600000000457e+02
4.980000000000000000e+02,8.352543299999999817e+02
4.990000000000000000e+02,8.353540600000000040e+02
5.000000000000000000e+02,8.354523900000000367e+02
5.010000000000000000e+02,8.355493800000000419e+02
5.020000000000000000e+02,8.356450800000000072e+02
5.030000000000000000e+02,8.357394399999999450e+02
5.040000000000000000e+02,8.358325200000000450e+02
5.050000000000000000e+02,8.359243800000000419e+02
5.060000000000000000e+02,8.360149499999999989e+02
5.070000000000000000e+02,8.361043100000000550e+02
5.080000000000000000e+02,8.361923799999999574e+02
5.090000000000000000e+02,8.362793599999999969e+02
5.100000000000000000e+02,8.363650499999999965e+02
5.110000000000000000e+02,8.364496500000000196e+02
5.120000000000000000e+02,8.365330199999999650e+02
5.130000000000000000e+02,8.366153600000000097e+02
5.140000000000000000e+02,8.366964699999999766e+02
5.150000000000000000e+02,8.367765500000000429e+02
5.160000000000000000e+02,8.368554699999999684e+02
5.170000000000000000e+02,8.369333500000000186e+02
5.180000000000000000e+02,8.370101899999999659e+02
5.190000000000000000e+02,8.370859400000000505e+02
5.200000000000000000e+02,8.371607099999999946e+02
5.210000000000000000e+02,8.372343799999999874e+02
5.220000000000000000e+02,8.373071300000000292e+02
5.230000000000000000e+02,8.373788500000000568e+02
5.240000000000000000e+02,8.374495799999999690e+02
5.250000000000000000e+02,8.375193500000000313e+02
5.260000000000000000e+02,8.375881299999999783e+02
5.270000000000000000e+02,8.376560699999999997e+02
5.280000000000000000e+02,8.377229599999999436e+02
5.290000000000000000e+02,8.377889999999999873e+02
5.300000000000000000e+02,8.378541900000000169e+02
5.310000000000000000e+02,8.379184000000000196e+02
5.320000000000000000e+02,8.379818099999999959e+02
5.330000000000000000e+02,8.380443099999999959e+02
5.340000000000000000e+02,8.381059599999999818e+02
5.350000000000000000e+02,8.381667499999999791e+02
5.360000000000000000e+02,8.382267500000000382e+02
5.370000000000000000e+02,8.382858899999999949e+02
5.380000000000000000e+02,8.383442400000000134e+02
5.390000000000000000e+02,8.384017900000000054e+02
5.400000000000000000e+02,8.384585600000000341e+02
5.410000000000000000e+02,8.385145899999999983e+02
5.420000000000000000e+02,8.385698200000000497e+02
5.430000000000000000e+02,8.386242700000000241e+02
5.440000000000000000e+02,8.386780400000000100e+02
5.450000000000000000e+02,8.387310199999999440e+02
5.460000000000000000e+02,8.387832600000000411e+02
5.470000000000000000e+02,8.388348399999999856e+02
5.480000000000000000e+02,8.388856799999999794e+02
5.490000000000000000e+02,8.389358499999999594e+02
5.500000000000000000e+02,8.389852899999999636e+02
5.510000000000000000e+02,8.390341200000000299e+02
5.520000000000000000e+02,8.390822100000000319e+02
5.530000000000000000e+02,8.391296999999999571e+02
5.540000000000000000e+02,8.391765100000000075e+02
5.550000000000000000e+02,8.392227199999999812e+02
5.560000000000000000e+02,8.392682499999999663e+02
5.570000000000000000e+02,8.393131700000000137e+02
5.580000000000000000e+02,8.393574800000000096e+02
5.590000000000000000e+02,8.394011799999999539e+02
5.600000000000000000e+02,8.394443400000000111e+02
5.610000000000000000e+02,8.394868199999999661e+02
5.620000000000000000e+02,8.395287499999999454e+02
5.630000000000000000e+02,8.395701299999999492e+02
5.640000000000000000e+02,8.396109599999999773e+02
5.650000000000000000e+02,8.396511799999999539e+02
5.660000000000000000e+02,8.396908600000000433e+02
5.670000000000000000e+02,8.397299799999999550e+02
5.680000000000000000e+02,8.397686200000000554e+02
5.690000000000000000e+02,8.398066999999999780e+02
5.700000000000000000e+02,8.398442400000000134e+02
5.710000000000000000e+02,8.398812900000000354e+02
5.720000000000000000e+02,8.399178500000000440e+02
5.730000000000000000e+02,8.399538599999999633e+02
5.740000000000000000e+02,8.399894399999999450e+02
5.750000000000000000e+02,8.400244800000000396e+02
5.760000000000000000e+02,8.400590799999999945e+02
5.770000000000000000e+02,8.400932000000000244e+02
5.780000000000000000e+02,8.401268300000000409e+02
5.790000000000000000e+02,8.401600300000000061e+02
5.800000000000000000e+02,8.401927500000000464e+02
5.810000000000000000e+02,8.402250400000000354e+02
5.820000000000000000e+02,8.402568400000000111e+02
5.830000000000000000e+02,8.402882700000000114e+02
5.840000000000000000e+02,8.403192099999999982e+02
5.850000000000000000e+02,8.403497899999999845e+02
5.860000000000000000e+02,8.403798799999999574e+02
5.870000000000000000e+02,8.404096100000000433e+02
5.880000000000000000e+02,8.404389599999999518e+02
5.890000000000000000e+02,8.404678300000000490e+02
5.900000000000000000e+02,8.404963999999999942e+02
5.910000000000000000e+02,8.405244800000000396e+02
5.920000000000000000e+02,8.405522499999999582e+02
5.930000000000000000e+02,8.405795900000000529e+02
5.940000000000000000e+02,8.406065700000000334e+02
5.950000000000000000e+02,8.406332400000000007e+02
5.960000000000000000e+02,8.406594199999999546e+02
5.970000000000000000e+02,8.406853599999999460e+02
5.980000000000000000e+02,8.407108799999999746e+02
5.990000000000000000e+02,8.407360800000000154e+02