# Time [s], Mass [Kg]
1.000000000000000000e+00,1.000000000000000000e+00
2.000000000000000000e+00,1.000000000000000000e+00
3.000000000000000000e+00,1.000000000000000000e+00
4.000000000000000000e+00,1.000000000000000000e+00
5.000000000000000000e+00,1.000000000000000000e+00
6.000000000000000000e+00,9.999999400000000316e-01
7.000000000000000000e+00,9.999995799999999990e-01
8.000000000000000000e+00,9.999974999999999836e-01
9.000000000000000000e+00,9.999892099999999617e-01
1.000000000000000000e+01,9.999611999999999945e-01
1.100000000000000000e+01,9.998828800000000294e-01
1.200000000000000000e+01,9.996962000000000348e-01
1.300000000000000000e+01,9.993091800000000191e-01
1.400000000000000000e+01,9.986076400000000186e-01
1.500000000000000000e+01,9.974910000000000165e-01
1.600000000000000000e+01,9.959574900000000008e-01
1.700000000000000000e+01,9.940908000000000522e-01
1.800000000000000000e+01,9.919007399999999475e-01
1.900000000000000000e+01,9.896420200000000111e-01
2.000000000000000000e+01,9.873203600000000080e-01
2.100000000000000000e+01,9.847964000000000162e-01
2.200000000000000000e+01,9.825241000000000113e-01
2.300000000000000000e+01,9.801416400000000362e-01
2.400000000000000000e+01,9.776538000000000173e-01
2.500000000000000000e+01,9.751753199999999566e-01
2.600000000000000000e+01,9.725806700000000360e-01
2.700000000000000000e+01,9.698250899999999453e-01
2.800000000000000000e+01,9.671504499999999949e-01
2.900000000000000000e+01,9.645295099999999788e-01
3.000000000000000000e+01,9.619491100000000516e-01
3.100000000000000000e+01,9.594804599999999795e-01
3.200000000000000000e+01,9.570269599999999821e-01
3.300000000000000000e+01,9.545704099999999803e-01
3.400000000000000000e+01,9.520837699999999959e-01
3.500000000000000000e+01,9.495935399999999582e-01
3.600000000000000000e+01,9.471105899999999744e-01
3.700000000000000000e+01,9.446722899999999701e-01
3.800000000000000000e+01,9.422972200000000464e-01
3.900000000000000000e+01,9.399708500000000244e-01
4.000000000000000000e+01,9.376931800000000150e-01
4.100000000000000000e+01,9.354326699999999661e-01
4.200000000000000000e+01,9.331810499999999564e-01
4.300000000000000000e+01,9.309228099999999895e-01
4.400000000000000000e+01,9.286726100000000095e-01
4.500000000000000000e+01,9.264334400000000524e-01
4.600000000000000000e+01,9.242231800000000330e-01
4.700000000000000000e+01,9.220468400000000342e-01
4.800000000000000000e+01,9.199068500000000537e-01
4.900000000000000000e+01,9.177981600000000295e-01
5.000000000000000000e+01,9.157121200000000183e-01
5.100000000000000000e+01,9.136404399999999981e-01
5.200000000000000000e+01,9.108012300000000172e-01
5.300000000000000000e+01,9.083631599999999473e-01
5.400000000000000000e+01,9.062894599999999912e-01
5.500000000000000000e+01,9.041799299999999651e-01
5.600000000000000000e+01,9.020795799999999920e-01
5.700000000000000000e+01,9.000970700000000546e-01
5.800000000000000000e+01,8.980330800000000391e-01
5.900000000000000000e+01,8.960945000000000160e-01
6.000000000000000000e+01,8.940747399999999789e-01
6.100000000000000000e+01,8.921350200000000008e-01
6.200000000000000000e+01,8.901506099999999533e-01
6.300000000000000000e+01,8.882010000000000183e-01
6.400000000000000000e+01,8.862519300000000211e-01
6.500000000000000000e+01,8.843066099999999929e-01
6.600000000000000000e+01,8.823970599999999553e-01
6.700000000000000000e+01,8.804715300000000022e-01
6.800000000000000000e+01,8.785980300000000298e-01
6.900000000000000000e+01,8.766971799999999648e-01
7.000000000000000000e+01,8.748759600000000081e-01
7.100000000000000000e+01,8.728978600000000254e-01
7.200000000000000000e+01,8.709585699999999875e-01
7.300000000000000000e+01,8.691378800000000293e-01
7.400000000000000000e+01,8.672367300000000112e-01
7.500000000000000000e+01,8.653935200000000272e-01
7.600000000000000000e+01,8.635443400000000214e-01
7.700000000000000000e+01,8.616826499999999944e-01
7.800000000000000000e+01,8.598682899999999796e-01
7.900000000000000000e+01,8.580063599999999679e-01
8.000000000000000000e+01,8.562078499999999925e-01
8.100000000000000000e+01,8.543566500000000508e-01
8.200000000000000000e+01,8.525590299999999955e-01
8.300000000000000000e+01,8.507214199999999504e-01
8.400000000000000000e+01,8.489165300000000025e-01
8.500000000000000000e+01,8.470936399999999811e-01
8.600000000000000000e+01,8.453150400000000175e-01
8.700000000000000000e+01,8.434513200000000044e-01
8.800000000000000000e+01,8.415603600000000073e-01
8.900000000000000000e+01,8.397289500000000295e-01
9.000000000000000000e+01,8.379015300000000055e-01
9.100000000000000000e+01,8.360515200000000480e-01
9.200000000000000000e+01,8.342405000000000515e-01
9.300000000000000000e+01,8.323886400000000130e-01
9.400000000000000000e+01,8.305693899999999630e-01
9.500000000000000000e+01,8.287228899999999898e-01
9.600000000000000000e+01,8.269052500000000361e-01
9.700000000000000000e+01,8.250290799999999702e-01
9.800000000000000000e+01,8.231060500000000335e-01
9.900000000000000000e+01,8.212150299999999570e-01
1.000000000000000000e+02,8.193372500000000169e-01
1.010000000000000000e+02,8.174301999999999957e-01
1.020000000000000000e+02,8.155465100000000023e-01
1.030000000000000000e+02,8.136350500000000263e-01
1.040000000000000000e+02,8.115725499999999482e-01
1.050000000000000000e+02,8.095571400000000084e-01
1.060000000000000000e+02,8.075947199999999881e-01
1.070000000000000000e+02,8.055980200000000258e-01
1.080000000000000000e+02,8.035472599999999854e-01
1.090000000000000000e+02,8.015198100000000547e-01
1.100000000000000000e+02,7.995089300000000065e-01
1.110000000000000000e+02,7.974683599999999872e-01
1.120000000000000000e+02,7.954369199999999918e-01
1.130000000000000000e+02,7.933870600000000328e-01
1.140000000000000000e+02,7.913395199999999630e-01
1.150000000000000000e+02,7.892543699999999829e-01
1.160000000000000000e+02,7.871037100000000120e-01
1.170000000000000000e+02,7.849443600000000076e-01
1.180000000000000000e+02,7.827937000000000367e-01
1.190000000000000000e+02,7.806116899999999692e-01
1.200000000000000000e+02,7.784277200000000452e-01
1.210000000000000000e+02,7.762074500000000210e-01
1.220000000000000000e+02,7.739329900000000428e-01
1.230000000000000000e+02,7.716336299999999593e-01
1.240000000000000000e+02,7.693291300000000277e-01
1.250000000000000000e+02,7.669943599999999861e-01
1.260000000000000000e+02,7.646357400000000082e-01
1.270000000000000000e+02,7.622559700000000049e-01
1.280000000000000000e+02,7.598513399999999862e-01
1.290000000000000000e+02,7.574108800000000086e-01
1.300000000000000000e+02,7.548978299999999919e-01
1.310000000000000000e+02,7.523406700000000447e-01
1.320000000000000000e+02,7.497698099999999810e-01
1.330000000000000000e+02,7.471626399999999890e-01
1.340000000000000000e+02,7.445268600000000125e-01
1.350000000000000000e+02,7.418519300000000483e-01
1.360000000000000000e+02,7.391107700000000280e-01
1.370000000000000000e+02,7.363187700000000113e-01
1.380000000000000000e+02,7.335010800000000275e-01
1.390000000000000000e+02,7.306488199999999766e-01
1.400000000000000000e+02,7.277628200000000325e-01
1.410000000000000000e+02,7.248410600000000370e-01
1.420000000000000000e+02,7.218592200000000236e-01
1.430000000000000000e+02,7.188276099999999502e-01
1.440000000000000000e+02,7.157727499999999576e-01
1.450000000000000000e+02,7.126932700000000453e-01
1.460000000000000000e+02,7.094347500000000029e-01
1.470000000000000000e+02,7.062264099999999711e-01
1.480000000000000000e+02,7.030031100000000421e-01
1.490000000000000000e+02,6.997613900000000386e-01
1.500000000000000000e+02,6.965213999999999572e-01
1.510000000000000000e+02,6.932805199999999557e-01
1.520000000000000000e+02,6.900392800000000326e-01
1.530000000000000000e+02,6.868191399999999947e-01
1.540000000000000000e+02,6.836167600000000455e-01
1.550000000000000000e+02,6.804115800000000158e-01
1.560000000000000000e+02,6.772034200000000004e-01
1.570000000000000000e+02,6.739984199999999870e-01
1.580000000000000000e+02,6.707858399999999666e-01
1.590000000000000000e+02,6.675663600000000253e-01
1.600000000000000000e+02,6.643567099999999614e-01
1.610000000000000000e+02,6.611649400000000343e-01
1.620000000000000000e+02,6.579911099999999902e-01
1.630000000000000000e+02,6.548509599999999820e-01
1.640000000000000000e+02,6.517484199999999950e-01
1.650000000000000000e+02,6.486696600000000368e-01
1.660000000000000000e+02,6.456089600000000095e-01
1.670000000000000000e+02,6.425704399999999650e-01
1.680000000000000000e+02,6.395472300000000221e-01
1.690000000000000000e+02,6.365352899999999758e-01
1.700000000000000000e+02,6.335459900000000033e-01
1.710000000000000000e+02,6.305873400000000517e-01
1.720000000000000000e+02,6.276557400000000175e-01
1.730000000000000000e+02,6.247494199999999998e-01
1.740000000000000000e+02,6.218758199999999681e-01
1.750000000000000000e+02,6.190441300000000258e-01
1.760000000000000000e+02,6.162571900000000102e-01
1.770000000000000000e+02,6.135257499999999808e-01
1.780000000000000000e+02,6.108601099999999562e-01
1.790000000000000000e+02,6.081781400000000337e-01
1.800000000000000000e+02,6.055891500000000205e-01
1.810000000000000000e+02,6.030856999999999468e-01
1.820000000000000000e+02,6.006718899999999861e-01
1.830000000000000000e+02,5.983469500000000441e-01
1.840000000000000000e+02,5.961096900000000254e-01
1.850000000000000000e+02,5.939687500000000453e-01
1.860000000000000000e+02,5.919331300000000295e-01
1.870000000000000000e+02,5.900105799999999512e-01
1.880000000000000000e+02,5.882190499999999656e-01
1.890000000000000000e+02,5.865840300000000340e-01
1.900000000000000000e+02,5.851213299999999951e-01
1.910000000000000000e+02,5.838400700000000443e-01
1.920000000000000000e+02,5.827521700000000138e-01
1.930000000000000000e+02,5.818604200000000448e-01
1.940000000000000000e+02,5.811539900000000092e-01
1.950000000000000000e+02,5.806075899999999512e-01
1.960000000000000000e+02,5.801960800000000029e-01
1.970000000000000000e+02,5.798913199999999879e-01
1.980000000000000000e+02,5.796663800000000366e-01
1.990000000000000000e+02,5.794991299999999734e-01
2.000000000000000000e+02,5.793746100000000121e-01
2.010000000000000000e+02,5.792810900000000540e-01
2.020000000000000000e+02,5.792097400000000285e-01
2.030000000000000000e+02,5.791545500000000457e-01
2.040000000000000000e+02,5.791115799999999592e-01
2.050000000000000000e+02,5.790777200000000180e-01
2.060000000000000000e+02,5.790505999999999709e-01
2.070000000000000000e+02,5.790287299999999915e-01
2.080000000000000000e+02,5.790107799999999472e-01
2.090000000000000000e+02,5.789961200000000030e-01
2.100000000000000000e+02,5.789840200000000436e-01
2.110000000000000000e+02,5.789738899999999910e-01
2.120000000000000000e+02,5.789653700000000347e-01
2.130000000000000000e+02,5.789581499999999492e-01
2.140000000000000000e+02,5.789521300000000092e-01
2.150000000000000000e+02,5.789469499999999602e-01
2.160000000000000000e+02,5.789425999999999739e-01
2.170000000000000000e+02,5.789387200000000178e-01
2.180000000000000000e+02,5.789353799999999994e-01
2.190000000000000000e+02,5.789324000000000137e-01
2.200000000000000000e+02,5.789297799999999494e-01
2.210000000000000000e+02,5.789274599999999493e-01
2.220000000000000000e+02,5.789253699999999947e-01
2.230000000000000000e+02,5.789235200000000248e-01
2.240000000000000000e+02,5.789219100000000395e-01
2.250000000000000000e+02,5.789204199999999911e-01
2.260000000000000000e+02,5.789190499999999906e-01
2.270000000000000000e+02,5.789178600000000063e-01
2.280000000000000000e+02,5.789167899999999589e-01
2.290000000000000000e+02,5.789157700000000517e-01
2.300000000000000000e+02,5.789148800000000206e-01
2.310000000000000000e+02,5.789141100000000373e-01
2.320000000000000000e+02,5.789133300000000037e-01
2.330000000000000000e+02,5.789126799999999573e-01
2.340000000000000000e+02,5.789120800000000511e-01
2.350000000000000000e+02,5.789114800000000338e-01
2.360000000000000000e+02,5.789109500000000352e-01
2.370000000000000000e+02,5.789104699999999548e-01
2.380000000000000000e+02,5.789099899999999854e-01
2.390000000000000000e+02,5.789095800000000347e-01
2.400000000000000000e+02,5.789092200000000021e-01
2.410000000000000000e+02,5.789088599999999696e-01
2.420000000000000000e+02,5.789085000000000480e-01
2.430000000000000000e+02,5.789082100000000342e-01
2.440000000000000000e+02,5.789079099999999700e-01
2.450000000000000000e+02,5.789076699999999853e-01
2.460000000000000000e+02,5.789073700000000322e-01
2.470000000000000000e+02,5.789071300000000475e-01
2.480000000000000000e+02,5.789069500000000312e-01
2.490000000000000000e+02,5.789067100000000465e-01
2.500000000000000000e+02,5.789064800000000011e-01
2.510000000000000000e+02,5.789062999999999848e-01
2.520000000000000000e+02,5.789061199999999685e-01
2.530000000000000000e+02,5.789059399999999522e-01
2.540000000000000000e+02,5.789057600000000470e-01
2.550000000000000000e+02,5.789056399999999991e-01
2.560000000000000000e+02,5.789054599999999828e-01
2.570000000000000000e+02,5.789053400000000460e-01
2.580000000000000000e+02,5.789052199999999981e-01
2.590000000000000000e+02,5.789051100000000005e-01
2.600000000000000000e+02,5.789049899999999527e-01
2.610000000000000000e+02,5.789048700000000158e-01
2.620000000000000000e+02,5.789047499999999680e-01
2.630000000000000000e+02,5.789046300000000311e-01
2.640000000000000000e+02,5.789045099999999833e-01
2.650000000000000000e+02,5.789044500000000149e-01
2.660000000000000000e+02,5.789043299999999670e-01
2.670000000000000000e+02,5.789042699999999986e-01
2.680000000000000000e+02,5.789041499999999507e-01
2.690000000000000000e+02,5.789040899999999823e-01
2.700000000000000000e+02,5.789040300000000139e-01
2.710000000000000000e+02,5.789039099999999660e-01
2.720000000000000000e+02,5.789038499999999976e-01
2.730000000000000000e+02,5.789037900000000292e-01
2.740000000000000000e+02,5.789037299999999497e-01
2.750000000000000000e+02,5.789036800000000316e-01
2.760000000000000000e+02,5.789036199999999521e-01
2.770000000000000000e+02,5.789035599999999837e-01
2.780000000000000000e+02,5.789035000000000153e-01
2.790000000000000000e+02,5.789034400000000469e-01
2.800000000000000000e+02,5.789033799999999674e-01
2.810000000000000000e+02,5.789033199999999990e-01
2.820000000000000000e+02,5.789032600000000306e-01
2.830000000000000000e+02,5.789032600000000306e-01
2.840000000000000000e+02,5.789031999999999512e-01
2.850000000000000000e+02,5.789031399999999827e-01
2.860000000000000000e+02,5.789030800000000143e-01
2.870000000000000000e+02,5.789030200000000459e-01
2.880000000000000000e+02,5.789030200000000459e-01
2.890000000000000000e+02,5.789029599999999665e-01
2.900000000000000000e+02,5.789028999999999980e-01
2.910000000000000000e+02,5.789028999999999980e-01
2.920000000000000000e+02,5.789028400000000296e-01
2.930000000000000000e+02,5.789027799999999502e-01
2.940000000000000000e+02,5.789027799999999502e-01
2.950000000000000000e+02,5.789027199999999818e-01
2.960000000000000000e+02,5.789027199999999818e-01
2.970000000000000000e+02,5.789026600000000133e-01
2.980000000000000000e+02,5.789026600000000133e-01
2.990000000000000000e+02,5.789026000000000449e-01
3.000000000000000000e+02,5.789026000000000449e-01
3.010000000000000000e+02,5.789025399999999655e-01
3.020000000000000000e+02,5.789025399999999655e-01
3.030000000000000000e+02,5.789024799999999971e-01
3.040000000000000000e+02,5.789024799999999971e-01
3.050000000000000000e+02,5.789024200000000286e-01
3.060000000000000000e+02,5.789024200000000286e-01
3.070000000000000000e+02,5.789024200000000286e-01
3.080000000000000000e+02,5.789023599999999492e-01
3.090000000000000000e+02,5.789023599999999492e-01
3.100000000000000000e+02,5.789022999999999808e-01
3.110000000000000000e+02,5.789022999999999808e-01
3.120000000000000000e+02,5.789022999999999808e-01
3.130000000000000000e+02,5.789022400000000124e-01
3.140000000000000000e+02,5.789022400000000124e-01
3.150000000000000000e+02,5.789022400000000124e-01
3.160000000000000000e+02,5.789021800000000439e-01
3.170000000000000000e+02,5.789021800000000439e-01
3.180000000000000000e+02,5.789021300000000148e-01
3.190000000000000000e+02,5.789021300000000148e-01
3.200000000000000000e+02,5.789021300000000148e-01
3.210000000000000000e+02,5.789020700000000463e-01
3.220000000000000000e+02,5.789020700000000463e-01
3.230000000000000000e+02,5.789020700000000463e-01
3.240000000000000000e+02,5.789020700000000463e-01
3.250000000000000000e+02,5.789020099999999669e-01
3.260000000000000000e+02,5.789020099999999669e-01
3.270000000000000000e+02,5.789020099999999669e-01
3.280000000000000000e+02,5.789019499999999985e-01
3.290000000000000000e+02,5.789019499999999985e-01
3.300000000000000000e+02,5.789019499999999985e-01
3.310000000000000000e+02,5.789019499999999985e-01
3.320000000000000000e+02,5.789018900000000301e-01
3.330000000000000000e+02,5.789018900000000301e-01
3.340000000000000000e+02,5.789018900000000301e-01
3.350000000000000000e+02,5.789018900000000301e-01
3.360000000000000000e+02,5.789018299999999506e-01
3.370000000000000000e+02,5.789018299999999506e-01
3.380000000000000000e+02,5.789018299999999506e-01
3.390000000000000000e+02,5.789018299999999506e-01
3.400000000000000000e+02,5.789018299999999506e-01
3.410000000000000000e+02,5.789017699999999822e-01
3.420000000000000000e+02,5.789017699999999822e-01
3.430000000000000000e+02,5.789017699999999822e-01
3.440000000000000000e+02,5.789017699999999822e-01
3.450000000000000000e+02,5.789017699999999822e-01
3.460000000000000000e+02,5.789017100000000138e-01
3.470000000000000000e+02,5.789017100000000138e-01
3.480000000000000000e+02,5.789017100000000138e-01
3.490000000000000000e+02,5.789017100000000138e-01
3.500000000000000000e+02,5.789017100000000138e-01
3.510000000000000000e+02,5.789016500000000454e-01
3.520000000000000000e+02,5.789016500000000454e-01
3.530000000000000000e+02,5.789016500000000454e-01
3.540000000000000000e+02,5.789016500000000454e-01
3.550000000000000000e+02,5.789016500000000454e-01
3.560000000000000000e+02,5.789015899999999659e-01
3.570000000000000000e+02,5.789015899999999659e-01
3.580000000000000000e+02,5.789015899999999659e-01
3.590000000000000000e+02,5.789015899999999659e-01
3.600000000000000000e+02,5.789015899999999659e-01
3.610000000000000000e+02,5.789015899999999659e-01
3.620000000000000000e+02,5.789015899999999659e-01
3.630000000000000000e+02,5.789015299999999975e-01
3.640000000000000000e+02,5.789015299999999975e-01
3.650000000000000000e+02,5.789015299999999975e-01
3.660000000000000000e+02,5.789015299999999975e-01
3.670000000000000000e+02,5.789015299999999975e-01
3.680000000000000000e+02,5.789015299999999975e-01
3.690000000000000000e+02,5.789015299999999975e-01
3.700000000000000000e+02,5.789014700000000291e-01
3.710000000000000000e+02,5.789014700000000291e-01
3.720000000000000000e+02,5.789014700000000291e-01
3.730000000000000000e+02,5.789014700000000291e-01
3.740000000000000000e+02,5.789014700000000291e-01
3.750000000000000000e+02,5.789014700000000291e-01
3.760000000000000000e+02,5.789014700000000291e-01
3.770000000000000000e+02,5.789014099999999496e-01
3.780000000000000000e+02,5.789014099999999496e-01
3.790000000000000000e+02,5.789014099999999496e-01
3.800000000000000000e+02,5.789014099999999496e-01
3.810000000000000000e+02,5.789014099999999496e-01
3.820000000000000000e+02,5.789014099999999496e-01
3.830000000000000000e+02,5.789014099999999496e-01
3.840000000000000000e+02,5.789014099999999496e-01
3.850000000000000000e+02,5.789013499999999812e-01
3.860000000000000000e+02,5.789013499999999812e-01
3.870000000000000000e+02,5.789013499999999812e-01
3.880000000000000000e+02,5.789013499999999812e-01
3.890000000000000000e+02,5.789013499999999812e-01
3.900000000000000000e+02,5.789013499999999812e-01
3.910000000000000000e+02,5.789013499999999812e-01
3.920000000000000000e+02,5.789013499999999812e-01
3.930000000000000000e+02,5.789013499999999812e-01
3.940000000000000000e+02,5.789012900000000128e-01
3.950000000000000000e+02,5.789012900000000128e-01
3.960000000000000000e+02,5.789012900000000128e-01
3.970000000000000000e+02,5.789012900000000128e-01
3.980000000000000000e+02,5.789012900000000128e-01
3.990000000000000000e+02,5.789012900000000128e-01
4.000000000000000000e+02,5.789012900000000128e-01
4.010000000000000000e+02,5.789012900000000128e-01
4.020000000000000000e+02,5.789012900000000128e-01
4.030000000000000000e+02,5.789012900000000128e-01
4.040000000000000000e+02,5.789012300000000444e-01
4.050000000000000000e+02,5.789012300000000444e-01
4.060000000000000000e+02,5.789012300000000444e-01
4.070000000000000000e+02,5.789012300000000444e-01
4.080000000000000000e+02,5.789012300000000444e-01
4.090000000000000000e+02,5.789012300000000444e-01
4.100000000000000000e+02,5.789012300000000444e-01
4.110000000000000000e+02,5.789012300000000444e-01
4.120000000000000000e+02,5.789012300000000444e-01
4.130000000000000000e+02,5.789012300000000444e-01
4.140000000000000000e+02,5.789012300000000444e-01
4.150000000000000000e+02,5.789011699999999649e-01
4.160000000000000000e+02,5.789011699999999649e-01
4.170000000000000000e+02,5.789011699999999649e-01
4.180000000000000000e+02,5.789011699999999649e-01
4.190000000000000000e+02,5.789011699999999649e-01
4.200000000000000000e+02,5.789011699999999649e-01
4.210000000000000000e+02,5.789011699999999649e-01
4.220000000000000000e+02,5.789011699999999649e-01
4.230000000000000000e+02,5.789011699999999649e-01
4.240000000000000000e+02,5.789011699999999649e-01
4.250000000000000000e+02,5.789011699999999649e-01
4.260000000000000000e+02,5.789011699999999649e-01
4.270000000000000000e+02,5.789011699999999649e-01
4.280000000000000000e+02,5.789011099999999965e-01
4.290000000000000000e+02,5.789011099999999965e-01
4.300000000000000000e+02,5.789011099999999965e-01
4.310000000000000000e+02,5.789011099999999965e-01
4.320000000000000000e+02,5.789011099999999965e-01
4.330000000000000000e+02,5.789011099999999965e-01
4.340000000000000000e+02,5.789011099999999965e-01
4.350000000000000000e+02,5.789011099999999965e-01
4.360000000000000000e+02,5.789011099999999965e-01
4.370000000000000000e+02,5.789011099999999965e-01
4.380000000000000000e+02,5.789011099999999965e-01
4.390000000000000000e+02,5.789011099999999965e-01
4.400000000000000000e+02,5.789011099999999965e-01
4.410000000000000000e+02,5.789010500000000281e-01
4.420000000000000000e+02,5.789010500000000281e-01
4.430000000000000000e+02,5.789010500000000281e-01
4.440000000000000000e+02,5.789010500000000281e-01
4.450000000000000000e+02,5.789010500000000281e-01
4.460000000000000000e+02,5.789010500000000281e-01
4.470000000000000000e+02,5.789010500000000281e-01
4.480000000000000000e+02,5.789010500000000281e-01
4.490000000000000000e+02,5.789010500000000281e-01
4.500000000000000000e+02,5.789010500000000281e-01
4.510000000000000000e+02,5.789010500000000281e-01
4.520000000000000000e+02,5.789010500000000281e-01
4.530000000000000000e+02,5.789010500000000281e-01
4.540000000000000000e+02,5.789010500000000281e-01
4.550000000000000000e+02,5.789010500000000281e-01
4.560000000000000000e+02,5.789010500000000281e-01
4.570000000000000000e+02,5.789009899999999487e-01
4.580000000000000000e+02,5.789009899999999487e-01
4.590000000000000000e+02,5.789009899999999487e-01
4.600000000000000000e+02,5.789009899999999487e-01
4.610000000000000000e+02,5.789009899999999487e-01
4.620000000000000000e+02,5.789009899999999487e-01
4.630000000000000000e+02,5.789009899999999487e-01
4.640000000000000000e+02,5.789009899999999487e-01
4.650000000000000000e+02,5.789009899999999487e-01
4.660000000000000000e+02,5.789009899999999487e-01
4.670000000000000000e+02,5.789009899999999487e-01
4.680000000000000000e+02,5.789009899999999487e-01
4.690000000000000000e+02,5.789009899999999487e-01
4.700000000000000000e+02,5.789009899999999487e-01
4.710000000000000000e+02,5.789009899999999487e-01
4.720000000000000000e+02,5.789009899999999487e-01
4.730000000000000000e+02,5.789009899999999487e-01
4.740000000000000000e+02,5.789009899999999487e-01
4.750000000000000000e+02,5.789009299999999802e-01
4.760000000000000000e+02,5.789009299999999802e-01
4.770000000000000000e+02,5.789009299999999802e-01
4.780000000000000000e+02,5.789009299999999802e-01
4.790000000000000000e+02,5.789009299999999802e-01
4.800000000000000000e+02,5.789009299999999802e-01
4.810000000000000000e+02,5.789009299999999802e-01
4.820000000000000000e+02,5.789009299999999802e-01
4.830000000000000000e+02,5.789009299999999802e-01
4.840000000000000000e+02,5.789009299999999802e-01
4.850000000000000000e+02,5.789009299999999802e-01
4.860000000000000000e+02,5.789009299999999802e-01
4.870000000000000000e+02,5.789009299999999802e-01
4.880000000000000000e+02,5.789009299999999802e-01
4.890000000000000000e+02,5.789009299999999802e-01
4.900000000000000000e+02,5.789009299999999802e-01
4.910000000000000000e+02,5.789009299999999802e-01
4.920000000000000000e+02,5.789009299999999802e-01
4.930000000000000000e+02,5.789009299999999802e-01
4.940000000000000000e+02,5.789009299999999802e-01
4.950000000000000000e+02,5.789009299999999802e-01
4.960000000000000000e+02,5.789009299999999802e-01
4.970000000000000000e+02,5.789008700000000118e-01
4.980000000000000000e+02,5.789008700000000118e-01
4.990000000000000000e+02,5.789008700000000118e-01
5.000000000000000000e+02,5.789008700000000118e-01
5.010000000000000000e+02,5.789008700000000118e-01
5.020000000000000000e+02,5.789008700000000118e-01
5.030000000000000000e+02,5.789008700000000118e-01
5.040000000000000000e+02,5.789008700000000118e-01
5.050000000000000000e+02,5.789008700000000118e-01
5.060000000000000000e+02,5.789008700000000118e-01
5.070000000000000000e+02,5.789008700000000118e-01
5.080000000000000000e+02,5.789008700000000118e-01
5.090000000000000000e+02,5.789008700000000118e-01
5.100000000000000000e+02,5.789008700000000118e-01
5.110000000000000000e+02,5.789008700000000118e-01
5.120000000000000000e+02,5.789008700000000118e-01
5.130000000000000000e+02,5.789008700000000118e-01
5.140000000000000000e+02,5.789008700000000118e-01
5.150000000000000000e+02,5.789008700000000118e-01
5.160000000000000000e+02,5.789008700000000118e-01
5.170000000000000000e+02,5.789008700000000118e-01
5.180000000000000000e+02,5.789008700000000118e-01
5.190000000000000000e+02,5.789008700000000118e-01
5.200000000000000000e+02,5.789008700000000118e-01
5.210000000000000000e+02,5.789008100000000434e-01
5.220000000000000000e+02,5.789008100000000434e-01
5.230000000000000000e+02,5.789008100000000434e-01
5.240000000000000000e+02,5.789008100000000434e-01
5.250000000000000000e+02,5.789008100000000434e-01
5.260000000000000000e+02,5.789008100000000434e-01
5.270000000000000000e+02,5.789008100000000434e-01
5.280000000000000000e+02,5.789008100000000434e-01
5.290000000000000000e+02,5.789008100000000434e-01
5.300000000000000000e+02,5.789008100000000434e-01
5.310000000000000000e+02,5.789008100000000434e-01
5.320000000000000000e+02,5.789008100000000434e-01
5.330000000000000000e+02,5.789008100000000434e-01
5.340000000000000000e+02,5.789008100000000434e-01
5.350000000000000000e+02,5.789008100000000434e-01
5.360000000000000000e+02,5.789008100000000434e-01
5.370000000000000000e+02,5.789008100000000434e-01
5.380000000000000000e+02,5.789008100000000434e-01
5.390000000000000000e+02,5.789008100000000434e-01
5.400000000000000000e+02,5.789008100000000434e-01
5.410000000000000000e+02,5.789008100000000434e-01
5.420000000000000000e+02,5.789008100000000434e-01
5.430000000000000000e+02,5.789008100000000434e-01
5.440000000000000000e+02,5.789008100000000434e-01
5.450000000000000000e+02,5.789008100000000434e-01
5.460000000000000000e+02,5.789008100000000434e-01
5.470000000000000000e+02,5.789008100000000434e-01
5.480000000000000000e+02,5.789008100000000434e-01
5.490000000000000000e+02,5.789008100000000434e-01
5.500000000000000000e+02,5.789007499999999640e-01
5.510000000000000000e+02,5.789007499999999640e-01
5.520000000000000000e+02,5.789007499999999640e-01
5.530000000000000000e+02,5.789007499999999640e-01
5.540000000000000000e+02,5.789007499999999640e-01
5.550000000000000000e+02,5.789007499999999640e-01
5.560000000000000000e+02,5.789007499999999640e-01
5.570000000000000000e+02,5.789007499999999640e-01
5.580000000000000000e+02,5.789007499999999640e-01
5.590000000000000000e+02,5.789007499999999640e-01
5.600000000000000000e+02,5.789007499999999640e-01
5.610000000000000000e+02,5.789007499999999640e-01
5.620000000000000000e+02,5.789007499999999640e-01
5.630000000000000000e+02,5.789007499999999640e-01
5.640000000000000000e+02,5.789007499999999640e-01
5.650000000000000000e+02,5.789007499999999640e-01
5.660000000000000000e+02,5.789007499999999640e-01
5.670000000000000000e+02,5.789007499999999640e-01
5.680000000000000000e+02,5.789007499999999640e-01
5.690000000000000000e+02,5.789007499999999640e-01
5.700000000000000000e+02,5.789007499999999640e-01
5.710000000000000000e+02,5.789007499999999640e-01
5.720000000000000000e+02,5.789007499999999640e-01
5.730000000000000000e+02,5.789007499999999640e-01
5.740000000000000000e+02,5.789007499999999640e-01
5.750000000000000000e+02,5.789007499999999640e-01
5.760000000000000000e+02,5.789007499999999640e-01
5.770000000000000000e+02,5.789007499999999640e-01
5.780000000000000000e+02,5.789007499999999640e-01
5.790000000000000000e+02,5.789007499999999640e-01
5.800000000000000000e+02,5.789007499999999640e-01
5.810000000000000000e+02,5.789007499999999640e-01
5.820000000000000000e+02,5.789007499999999640e-01
5.830000000000000000e+02,5.789007499999999640e-01
5.840000000000000000e+02,5.789006899999999955e-01
5.850000000000000000e+02,5.789006899999999955e-01
5.860000000000000000e+02,5.789006899999999955e-01
5.870000000000000000e+02,5.789006899999999955e-01
5.880000000000000000e+02,5.789006899999999955e-01
5.890000000000000000e+02,5.789006899999999955e-01
5.900000000000000000e+02,5.789006899999999955e-01
5.910000000000000000e+02,5.789006899999999955e-01
5.920000000000000000e+02,5.789006899999999955e-01
5.930000000000000000e+02,5.789006899999999955e-01
5.940000000000000000e+02,5.789006899999999955e-01
5.950000000000000000e+02,5.789006899999999955e-01
5.960000000000000000e+02,5.789006899999999955e-01
5.970000000000000000e+02,5.789006899999999955e-01
5.980000000000000000e+02,5.789006899999999955e-01
5.990000000000000000e+02,5.789006899999999955e-01