# Time [s], Mass [Kg]
1.000000000000000000e+00,1.000000000000000000e+00
2.000000000000000000e+00,1.000000000000000000e+00
3.000000000000000000e+00,1.000000000000000000e+00
4.000000000000000000e+00,1.000000000000000000e+00
5.000000000000000000e+00,1.000000000000000000e+00
6.000000000000000000e+00,9.999999400000000316e-01
7.000000000000000000e+00,9.999995799999999990e-01
8.000000000000000000e+00,9.999975599999999520e-01
9.000000000000000000e+00,9.999890299999999455e-01
1.000000000000000000e+01,9.999601799999999763e-01
1.100000000000000000e+01,9.998784099999999953e-01
1.200000000000000000e+01,9.996816499999999772e-01
1.300000000000000000e+01,9.992695999999999801e-01
1.400000000000000000e+01,9.985135200000000433e-01
1.500000000000000000e+01,9.973033700000000223e-01
1.600000000000000000e+01,9.954553800000000008e-01
1.700000000000000000e+01,9.934066499999999467e-01
1.800000000000000000e+01,9.909533299999999656e-01
1.900000000000000000e+01,9.883226800000000090e-01
2.000000000000000000e+01,9.855602999999999447e-01
2.100000000000000000e+01,9.828941799999999507e-01
2.200000000000000000e+01,9.802973299999999668e-01
2.300000000000000000e+01,9.779350199999999882e-01
2.400000000000000000e+01,9.758660799999999691e-01
2.500000000000000000e+01,9.739838800000000241e-01
2.600000000000000000e+01,9.721416800000000080e-01
2.700000000000000000e+01,9.701357499999999634e-01
2.800000000000000000e+01,9.678759599999999796e-01
2.900000000000000000e+01,9.654267399999999499e-01
3.000000000000000000e+01,9.629051699999999769e-01
3.100000000000000000e+01,9.604018300000000119e-01
3.200000000000000000e+01,9.579902900000000221e-01
3.300000000000000000e+01,9.557209599999999527e-01
3.400000000000000000e+01,9.536163199999999618e-01
3.500000000000000000e+01,9.516584300000000551e-01
3.600000000000000000e+01,9.497838600000000353e-01
3.700000000000000000e+01,9.478967799999999944e-01
3.800000000000000000e+01,9.459151599999999771e-01
3.900000000000000000e+01,9.438088500000000325e-01
4.000000000000000000e+01,9.416046099999999530e-01
4.100000000000000000e+01,9.393562100000000248e-01
4.200000000000000000e+01,9.371201399999999904e-01
4.300000000000000000e+01,9.349436199999999753e-01
4.400000000000000000e+01,9.328584699999999952e-01
4.500000000000000000e+01,9.308765500000000248e-01
4.600000000000000000e+01,9.289887500000000298e-01
4.700000000000000000e+01,9.271646700000000241e-01
4.800000000000000000e+01,9.253600800000000293e-01
4.900000000000000000e+01,9.235296800000000195e-01
5.000000000000000000e+01,9.216450999999999949e-01
5.100000000000000000e+01,9.197011000000000491e-01
5.200000000000000000e+01,9.177125699999999497e-01
5.300000000000000000e+01,9.157059800000000305e-01
5.400000000000000000e+01,9.137095200000000528e-01
5.500000000000000000e+01,9.117482900000000168e-01
5.600000000000000000e+01,9.098393299999999462e-01
5.700000000000000000e+01,9.079902800000000385e-01
5.800000000000000000e+01,9.061972499999999542e-01
5.900000000000000000e+01,9.044462399999999569e-01
6.000000000000000000e+01,9.027164600000000538e-01
6.100000000000000000e+01,9.009846999999999717e-01
6.200000000000000000e+01,8.992326299999999772e-01
6.300000000000000000e+01,8.974507499999999638e-01
6.400000000000000000e+01,8.956391799999999792e-01
6.500000000000000000e+01,8.938071100000000158e-01
6.600000000000000000e+01,8.919674800000000348e-01
6.700000000000000000e+01,8.901345699999999583e-01
6.800000000000000000e+01,8.879289000000000209e-01
6.900000000000000000e+01,8.859664200000000323e-01
7.000000000000000000e+01,8.840882199999999802e-01
7.100000000000000000e+01,8.823059199999999658e-01
7.200000000000000000e+01,8.805800099999999686e-01
7.300000000000000000e+01,8.788735899999999823e-01
7.400000000000000000e+01,8.771626399999999935e-01
7.500000000000000000e+01,8.754298700000000544e-01
7.600000000000000000e+01,8.736696200000000356e-01
7.700000000000000000e+01,8.718846999999999570e-01
7.800000000000000000e+01,8.700833300000000436e-01
7.900000000000000000e+01,8.682762400000000325e-01
8.000000000000000000e+01,8.664735000000000076e-01
8.100000000000000000e+01,8.646838700000000211e-01
8.200000000000000000e+01,8.629127699999999956e-01
8.300000000000000000e+01,8.611618899999999854e-01
8.400000000000000000e+01,8.594294199999999995e-01
8.500000000000000000e+01,8.577094100000000054e-01
8.600000000000000000e+01,8.559940499999999508e-01
8.700000000000000000e+01,8.542749899999999563e-01
8.800000000000000000e+01,8.525447200000000336e-01
8.900000000000000000e+01,8.507983700000000260e-01
9.000000000000000000e+01,8.490341900000000219e-01
9.100000000000000000e+01,8.472534400000000243e-01
9.200000000000000000e+01,8.454597600000000046e-01
9.300000000000000000e+01,8.436581499999999956e-01
9.400000000000000000e+01,8.418535000000000323e-01
9.500000000000000000e+01,8.400503999999999749e-01
9.600000000000000000e+01,8.382510499999999976e-01
9.700000000000000000e+01,8.364564199999999783e-01
9.800000000000000000e+01,8.346647600000000056e-01
9.900000000000000000e+01,8.328730500000000037e-01
1.000000000000000000e+02,8.310767399999999805e-01
1.010000000000000000e+02,8.292711999999999861e-01
1.020000000000000000e+02,8.274524800000000457e-01
1.030000000000000000e+02,8.256179700000000343e-01
1.040000000000000000e+02,8.237668299999999499e-01
1.050000000000000000e+02,8.218995300000000448e-01
1.060000000000000000e+02,8.200179899999999744e-01
1.070000000000000000e+02,8.181247699999999456e-01
1.080000000000000000e+02,8.162222500000000380e-01
1.090000000000000000e+02,8.143124600000000157e-01
1.100000000000000000e+02,8.123961100000000046e-01
1.110000000000000000e+02,8.104724899999999899e-01
1.120000000000000000e+02,8.085402299999999709e-01
1.130000000000000000e+02,8.065966399999999759e-01
1.140000000000000000e+02,8.046386800000000505e-01
1.150000000000000000e+02,8.026635100000000245e-01
1.160000000000000000e+02,8.006689500000000459e-01
1.170000000000000000e+02,7.986534199999999473e-01
1.180000000000000000e+02,7.966166700000000267e-01
1.190000000000000000e+02,7.945592400000000000e-01
1.200000000000000000e+02,7.924819600000000408e-01
1.210000000000000000e+02,7.903857800000000378e-01
1.220000000000000000e+02,7.882714299999999952e-01
1.230000000000000000e+02,7.861390099999999714e-01
1.240000000000000000e+02,7.839875800000000172e-01
1.250000000000000000e+02,7.815333599999999548e-01
1.260000000000000000e+02,7.791978099999999907e-01
1.270000000000000000e+02,7.768926000000000442e-01
1.280000000000000000e+02,7.745918000000000525e-01
1.290000000000000000e+02,7.722796200000000555e-01
1.300000000000000000e+02,7.699484800000000462e-01
1.310000000000000000e+02,7.675948099999999608e-01
1.320000000000000000e+02,7.652164700000000375e-01
1.330000000000000000e+02,7.628127300000000499e-01
1.340000000000000000e+02,7.603822399999999870e-01
1.350000000000000000e+02,7.579235399999999512e-01
1.360000000000000000e+02,7.554345700000000274e-01
1.370000000000000000e+02,7.529131199999999913e-01
1.380000000000000000e+02,7.503569100000000436e-01
1.390000000000000000e+02,7.477645299999999828e-01
1.400000000000000000e+02,7.451350100000000420e-01
1.410000000000000000e+02,7.424681199999999537e-01
1.420000000000000000e+02,7.397646300000000341e-01
1.430000000000000000e+02,7.370258600000000326e-01
1.440000000000000000e+02,7.342534099999999953e-01
1.450000000000000000e+02,7.314491300000000029e-01
1.460000000000000000e+02,7.286147499999999777e-01
1.470000000000000000e+02,7.257519399999999843e-01
1.480000000000000000e+02,7.228623600000000371e-01
1.490000000000000000e+02,7.199474599999999835e-01
1.500000000000000000e+02,7.170089499999999783e-01
1.510000000000000000e+02,7.140487399999999596e-01
1.520000000000000000e+02,7.110691099999999487e-01
1.530000000000000000e+02,7.080726600000000204e-01
1.540000000000000000e+02,7.050623900000000388e-01
1.550000000000000000e+02,7.020412700000000505e-01
1.560000000000000000e+02,6.990126399999999629e-01
1.570000000000000000e+02,6.959792399999999990e-01
1.580000000000000000e+02,6.929438700000000173e-01
1.590000000000000000e+02,6.899091000000000529e-01
1.600000000000000000e+02,6.868773099999999632e-01
1.610000000000000000e+02,6.838505900000000359e-01
1.620000000000000000e+02,6.808311299999999511e-01
1.630000000000000000e+02,6.778208599999999695e-01
1.640000000000000000e+02,6.745887400000000200e-01
1.650000000000000000e+02,6.714659899999999570e-01
1.660000000000000000e+02,6.684089899999999806e-01
1.670000000000000000e+02,6.653994899999999824e-01
1.680000000000000000e+02,6.624277800000000216e-01
1.690000000000000000e+02,6.594881400000000005e-01
1.700000000000000000e+02,6.565775299999999648e-01
1.710000000000000000e+02,6.536942700000000217e-01
1.720000000000000000e+02,6.508377800000000324e-01
1.730000000000000000e+02,6.480079300000000098e-01
1.740000000000000000e+02,6.452051399999999548e-01
1.750000000000000000e+02,6.424299500000000274e-01
1.760000000000000000e+02,6.396831299999999887e-01
1.770000000000000000e+02,6.369654500000000441e-01
1.780000000000000000e+02,6.342777000000000553e-01
1.790000000000000000e+02,6.316209999999999880e-01
1.800000000000000000e+02,6.289966700000000355e-01
1.810000000000000000e+02,6.264060099999999576e-01
1.820000000000000000e+02,6.238506999999999802e-01
1.830000000000000000e+02,6.213325899999999624e-01
1.840000000000000000e+02,6.188537499999999802e-01
1.850000000000000000e+02,6.164163900000000362e-01
1.860000000000000000e+02,6.140228500000000089e-01
1.870000000000000000e+02,6.116758599999999602e-01
1.880000000000000000e+02,6.093782199999999705e-01
1.890000000000000000e+02,6.071332699999999472e-01
1.900000000000000000e+02,6.049445300000000358e-01
1.910000000000000000e+02,6.028162799999999821e-01
1.920000000000000000e+02,6.007529499999999523e-01
1.930000000000000000e+02,5.987598899999999613e-01
1.940000000000000000e+02,5.968427699999999669e-01
1.950000000000000000e+02,5.950080199999999708e-01
1.960000000000000000e+02,5.932629699999999451e-01
1.970000000000000000e+02,5.916156200000000087e-01
1.980000000000000000e+02,5.900747800000000209e-01
1.990000000000000000e+02,5.886499899999999563e-01
2.000000000000000000e+02,5.873513799999999785e-01
2.010000000000000000e+02,5.861891500000000477e-01
2.020000000000000000e+02,5.851729500000000250e-01
2.030000000000000000e+02,5.843104700000000262e-01
2.040000000000000000e+02,5.836059999999999581e-01
2.050000000000000000e+02,5.830579999999999652e-01
2.060000000000000000e+02,5.826571600000000073e-01
2.070000000000000000e+02,5.823851199999999784e-01
2.080000000000000000e+02,5.822157300000000424e-01
2.090000000000000000e+02,5.821195200000000014e-01
2.100000000000000000e+02,5.820693399999999906e-01
2.110000000000000000e+02,5.820449599999999446e-01
2.120000000000000000e+02,5.820335700000000001e-01
2.130000000000000000e+02,5.820283899999999511e-01
2.140000000000000000e+02,5.820260600000000117e-01
2.150000000000000000e+02,5.820249899999999643e-01
2.160000000000000000e+02,5.820244599999999657e-01
2.170000000000000000e+02,5.820242199999999810e-01
2.180000000000000000e+02,5.820241000000000442e-01
2.190000000000000000e+02,5.820240399999999648e-01
2.200000000000000000e+02,5.820240399999999648e-01
2.210000000000000000e+02,5.820239799999999963e-01
2.220000000000000000e+02,5.820239799999999963e-01
2.230000000000000000e+02,5.820239799999999963e-01
2.240000000000000000e+02,5.820239799999999963e-01
2.250000000000000000e+02,5.820239799999999963e-01
2.260000000000000000e+02,5.820239799999999963e-01
2.270000000000000000e+02,5.820239799999999963e-01
2.280000000000000000e+02,5.820239799999999963e-01
2.290000000000000000e+02,5.820239799999999963e-01
2.300000000000000000e+02,5.820239799999999963e-01
2.310000000000000000e+02,5.820239799999999963e-01
2.320000000000000000e+02,5.820239799999999963e-01
2.330000000000000000e+02,5.820239799999999963e-01
2.340000000000000000e+02,5.820239799999999963e-01
2.350000000000000000e+02,5.820239799999999963e-01
2.360000000000000000e+02,5.820239799999999963e-01
2.370000000000000000e+02,5.820239799999999963e-01
2.380000000000000000e+02,5.820239799999999963e-01
2.390000000000000000e+02,5.820239799999999963e-01
2.400000000000000000e+02,5.820239799999999963e-01
2.410000000000000000e+02,5.820239799999999963e-01
2.420000000000000000e+02,5.820239799999999963e-01
2.430000000000000000e+02,5.820239799999999963e-01
2.440000000000000000e+02,5.820239799999999963e-01
2.450000000000000000e+02,5.820239799999999963e-01
2.460000000000000000e+02,5.820239799999999963e-01
2.470000000000000000e+02,5.820239799999999963e-01
2.480000000000000000e+02,5.820239799999999963e-01
2.490000000000000000e+02,5.820239799999999963e-01
2.500000000000000000e+02,5.820239799999999963e-01
2.510000000000000000e+02,5.820239799999999963e-01
2.520000000000000000e+02,5.820239799999999963e-01
2.530000000000000000e+02,5.820239799999999963e-01
2.540000000000000000e+02,5.820239799999999963e-01
2.550000000000000000e+02,5.820239799999999963e-01
2.560000000000000000e+02,5.820239799999999963e-01
2.570000000000000000e+02,5.820239799999999963e-01
2.580000000000000000e+02,5.820239799999999963e-01
2.590000000000000000e+02,5.820239799999999963e-01
2.600000000000000000e+02,5.820239799999999963e-01
2.610000000000000000e+02,5.820239799999999963e-01
2.620000000000000000e+02,5.820239799999999963e-01
2.630000000000000000e+02,5.820239799999999963e-01
2.640000000000000000e+02,5.820239799999999963e-01
2.650000000000000000e+02,5.820239799999999963e-01
2.660000000000000000e+02,5.820239799999999963e-01
2.670000000000000000e+02,5.820239799999999963e-01
2.680000000000000000e+02,5.820239799999999963e-01
2.690000000000000000e+02,5.820239799999999963e-01
2.700000000000000000e+02,5.820239799999999963e-01
2.710000000000000000e+02,5.820239799999999963e-01
2.720000000000000000e+02,5.820239799999999963e-01
2.730000000000000000e+02,5.820239799999999963e-01
2.740000000000000000e+02,5.820239799999999963e-01
2.750000000000000000e+02,5.820239799999999963e-01
2.760000000000000000e+02,5.820239799999999963e-01
2.770000000000000000e+02,5.820239799999999963e-01
2.780000000000000000e+02,5.820239799999999963e-01
2.790000000000000000e+02,5.820239799999999963e-01
2.800000000000000000e+02,5.820239799999999963e-01
2.810000000000000000e+02,5.820239799999999963e-01
2.820000000000000000e+02,5.820239799999999963e-01
2.830000000000000000e+02,5.820239799999999963e-01
2.840000000000000000e+02,5.820239799999999963e-01
2.850000000000000000e+02,5.820239799999999963e-01
2.860000000000000000e+02,5.820239799999999963e-01
2.870000000000000000e+02,5.820239799999999963e-01
2.880000000000000000e+02,5.820239799999999963e-01
2.890000000000000000e+02,5.820239799999999963e-01
2.900000000000000000e+02,5.820239799999999963e-01
2.910000000000000000e+02,5.820239799999999963e-01
2.920000000000000000e+02,5.820239799999999963e-01
2.930000000000000000e+02,5.820239799999999963e-01
2.940000000000000000e+02,5.820239799999999963e-01
2.950000000000000000e+02,5.820239799999999963e-01
2.960000000000000000e+02,5.820239799999999963e-01
2.970000000000000000e+02,5.820239799999999963e-01
2.980000000000000000e+02,5.820239799999999963e-01
2.990000000000000000e+02,5.820239799999999963e-01
3.000000000000000000e+02,5.820239799999999963e-01
3.010000000000000000e+02,5.820239799999999963e-01
3.020000000000000000e+02,5.820239799999999963e-01
3.030000000000000000e+02,5.820239799999999963e-01
3.040000000000000000e+02,5.820239799999999963e-01
3.050000000000000000e+02,5.820239799999999963e-01
3.060000000000000000e+02,5.820239799999999963e-01
3.070000000000000000e+02,5.820239799999999963e-01
3.080000000000000000e+02,5.820239799999999963e-01
3.090000000000000000e+02,5.820239799999999963e-01
3.100000000000000000e+02,5.820239799999999963e-01
3.110000000000000000e+02,5.820239799999999963e-01
3.120000000000000000e+02,5.820239799999999963e-01
3.130000000000000000e+02,5.820239799999999963e-01
3.140000000000000000e+02,5.820239799999999963e-01
3.150000000000000000e+02,5.820239799999999963e-01
3.160000000000000000e+02,5.820239799999999963e-01
3.170000000000000000e+02,5.820239799999999963e-01
3.180000000000000000e+02,5.820239799999999963e-01
3.190000000000000000e+02,5.820239799999999963e-01
3.200000000000000000e+02,5.820239799999999963e-01
3.210000000000000000e+02,5.820239799999999963e-01
3.220000000000000000e+02,5.820239799999999963e-01
3.230000000000000000e+02,5.820239799999999963e-01
3.240000000000000000e+02,5.820239799999999963e-01
3.250000000000000000e+02,5.820239799999999963e-01
3.260000000000000000e+02,5.820239799999999963e-01
3.270000000000000000e+02,5.820239799999999963e-01
3.280000000000000000e+02,5.820239799999999963e-01
3.290000000000000000e+02,5.820239799999999963e-01
3.300000000000000000e+02,5.820239799999999963e-01
3.310000000000000000e+02,5.820239799999999963e-01
3.320000000000000000e+02,5.820239799999999963e-01
3.330000000000000000e+02,5.820239799999999963e-01
3.340000000000000000e+02,5.820239799999999963e-01
3.350000000000000000e+02,5.820239799999999963e-01
3.360000000000000000e+02,5.820239799999999963e-01
3.370000000000000000e+02,5.820239799999999963e-01
3.380000000000000000e+02,5.820239799999999963e-01
3.390000000000000000e+02,5.820239799999999963e-01
3.400000000000000000e+02,5.820239799999999963e-01
3.410000000000000000e+02,5.820239799999999963e-01
3.420000000000000000e+02,5.820239799999999963e-01
3.430000000000000000e+02,5.820239799999999963e-01
3.440000000000000000e+02,5.820239799999999963e-01
3.450000000000000000e+02,5.820239799999999963e-01
3.460000000000000000e+02,5.820239799999999963e-01
3.470000000000000000e+02,5.820239799999999963e-01
3.480000000000000000e+02,5.820239799999999963e-01
3.490000000000000000e+02,5.820239799999999963e-01
3.500000000000000000e+02,5.820239799999999963e-01
3.510000000000000000e+02,5.820239799999999963e-01
3.520000000000000000e+02,5.820239799999999963e-01
3.530000000000000000e+02,5.820239799999999963e-01
3.540000000000000000e+02,5.820239799999999963e-01
3.550000000000000000e+02,5.820239799999999963e-01
3.560000000000000000e+02,5.820239799999999963e-01
3.570000000000000000e+02,5.820239799999999963e-01
3.580000000000000000e+02,5.820239799999999963e-01
3.590000000000000000e+02,5.820239799999999963e-01
3.600000000000000000e+02,5.820239799999999963e-01
3.610000000000000000e+02,5.820239799999999963e-01
3.620000000000000000e+02,5.820239799999999963e-01
3.630000000000000000e+02,5.820239799999999963e-01
3.640000000000000000e+02,5.820239799999999963e-01
3.650000000000000000e+02,5.820239799999999963e-01
3.660000000000000000e+02,5.820239799999999963e-01
3.670000000000000000e+02,5.820239799999999963e-01
3.680000000000000000e+02,5.820239799999999963e-01
3.690000000000000000e+02,5.820239799999999963e-01
3.700000000000000000e+02,5.820239799999999963e-01
3.710000000000000000e+02,5.820239799999999963e-01
3.720000000000000000e+02,5.820239799999999963e-01
3.730000000000000000e+02,5.820239799999999963e-01
3.740000000000000000e+02,5.820239799999999963e-01
3.750000000000000000e+02,5.820239799999999963e-01
3.760000000000000000e+02,5.820239799999999963e-01
3.770000000000000000e+02,5.820239799999999963e-01
3.780000000000000000e+02,5.820239799999999963e-01
3.790000000000000000e+02,5.820239799999999963e-01
3.800000000000000000e+02,5.820239799999999963e-01
3.810000000000000000e+02,5.820239799999999963e-01
3.820000000000000000e+02,5.820239799999999963e-01
3.830000000000000000e+02,5.820239799999999963e-01
3.840000000000000000e+02,5.820239799999999963e-01
3.850000000000000000e+02,5.820239799999999963e-01
3.860000000000000000e+02,5.820239799999999963e-01
3.870000000000000000e+02,5.820239799999999963e-01
3.880000000000000000e+02,5.820239799999999963e-01
3.890000000000000000e+02,5.820239799999999963e-01
3.900000000000000000e+02,5.820239799999999963e-01
3.910000000000000000e+02,5.820239799999999963e-01
3.920000000000000000e+02,5.820239799999999963e-01
3.930000000000000000e+02,5.820239799999999963e-01
3.940000000000000000e+02,5.820239799999999963e-01
3.950000000000000000e+02,5.820239799999999963e-01
3.960000000000000000e+02,5.820239799999999963e-01
3.970000000000000000e+02,5.820239799999999963e-01
3.980000000000000000e+02,5.820239799999999963e-01
3.990000000000000000e+02,5.820239799999999963e-01
4.000000000000000000e+02,5.820239799999999963e-01
4.010000000000000000e+02,5.820239799999999963e-01
4.020000000000000000e+02,5.820239799999999963e-01
4.030000000000000000e+02,5.820239799999999963e-01
4.040000000000000000e+02,5.820239799999999963e-01
4.050000000000000000e+02,5.820239799999999963e-01
4.060000000000000000e+02,5.820239799999999963e-01
4.070000000000000000e+02,5.820239799999999963e-01
4.080000000000000000e+02,5.820239799999999963e-01
4.090000000000000000e+02,5.820239799999999963e-01
4.100000000000000000e+02,5.820239799999999963e-01
4.110000000000000000e+02,5.820239799999999963e-01
4.120000000000000000e+02,5.820239799999999963e-01
4.130000000000000000e+02,5.820239799999999963e-01
4.140000000000000000e+02,5.820239799999999963e-01
4.150000000000000000e+02,5.820239799999999963e-01
4.160000000000000000e+02,5.820239799999999963e-01
4.170000000000000000e+02,5.820239799999999963e-01
4.180000000000000000e+02,5.820239799999999963e-01
4.190000000000000000e+02,5.820239799999999963e-01
4.200000000000000000e+02,5.820239799999999963e-01
4.210000000000000000e+02,5.820239799999999963e-01
4.220000000000000000e+02,5.820239799999999963e-01
4.230000000000000000e+02,5.820239799999999963e-01
4.240000000000000000e+02,5.820239799999999963e-01
4.250000000000000000e+02,5.820239799999999963e-01
4.260000000000000000e+02,5.820239799999999963e-01
4.270000000000000000e+02,5.820239799999999963e-01
4.280000000000000000e+02,5.820239799999999963e-01
4.290000000000000000e+02,5.820239799999999963e-01
4.300000000000000000e+02,5.820239799999999963e-01
4.310000000000000000e+02,5.820239799999999963e-01
4.320000000000000000e+02,5.820239799999999963e-01
4.330000000000000000e+02,5.820239799999999963e-01
4.340000000000000000e+02,5.820239799999999963e-01
4.350000000000000000e+02,5.820239799999999963e-01
4.360000000000000000e+02,5.820239799999999963e-01
4.370000000000000000e+02,5.820239799999999963e-01
4.380000000000000000e+02,5.820239799999999963e-01
4.390000000000000000e+02,5.820239799999999963e-01
4.400000000000000000e+02,5.820239799999999963e-01
4.410000000000000000e+02,5.820239799999999963e-01
4.420000000000000000e+02,5.820239799999999963e-01
4.430000000000000000e+02,5.820239799999999963e-01
4.440000000000000000e+02,5.820239799999999963e-01
4.450000000000000000e+02,5.820239799999999963e-01
4.460000000000000000e+02,5.820239799999999963e-01
4.470000000000000000e+02,5.820239799999999963e-01
4.480000000000000000e+02,5.820239799999999963e-01
4.490000000000000000e+02,5.820239799999999963e-01
4.500000000000000000e+02,5.820239799999999963e-01
4.510000000000000000e+02,5.820239799999999963e-01
4.520000000000000000e+02,5.820239799999999963e-01
4.530000000000000000e+02,5.820239799999999963e-01
4.540000000000000000e+02,5.820239799999999963e-01
4.550000000000000000e+02,5.820239799999999963e-01
4.560000000000000000e+02,5.820239799999999963e-01
4.570000000000000000e+02,5.820239799999999963e-01
4.580000000000000000e+02,5.820239799999999963e-01
4.590000000000000000e+02,5.820239799999999963e-01
4.600000000000000000e+02,5.820239799999999963e-01
4.610000000000000000e+02,5.820239799999999963e-01
4.620000000000000000e+02,5.820239799999999963e-01
4.630000000000000000e+02,5.820239799999999963e-01
4.640000000000000000e+02,5.820239799999999963e-01
4.650000000000000000e+02,5.820239799999999963e-01
4.660000000000000000e+02,5.820239799999999963e-01
4.670000000000000000e+02,5.820239799999999963e-01
4.680000000000000000e+02,5.820239799999999963e-01
4.690000000000000000e+02,5.820239799999999963e-01
4.700000000000000000e+02,5.820239799999999963e-01
4.710000000000000000e+02,5.820239799999999963e-01
4.720000000000000000e+02,5.820239799999999963e-01
4.730000000000000000e+02,5.820239799999999963e-01
4.740000000000000000e+02,5.820239799999999963e-01
4.750000000000000000e+02,5.820239799999999963e-01
4.760000000000000000e+02,5.820239799999999963e-01
4.770000000000000000e+02,5.820239799999999963e-01
4.780000000000000000e+02,5.820239799999999963e-01
4.790000000000000000e+02,5.820239799999999963e-01
4.800000000000000000e+02,5.820239799999999963e-01
4.810000000000000000e+02,5.820239799999999963e-01
4.820000000000000000e+02,5.820239799999999963e-01
4.830000000000000000e+02,5.820239799999999963e-01
4.840000000000000000e+02,5.820239799999999963e-01
4.850000000000000000e+02,5.820239799999999963e-01
4.860000000000000000e+02,5.820239799999999963e-01
4.870000000000000000e+02,5.820239799999999963e-01
4.880000000000000000e+02,5.820239799999999963e-01
4.890000000000000000e+02,5.820239799999999963e-01
4.900000000000000000e+02,5.820239799999999963e-01
4.910000000000000000e+02,5.820239799999999963e-01
4.920000000000000000e+02,5.820239799999999963e-01
4.930000000000000000e+02,5.820239799999999963e-01
4.940000000000000000e+02,5.820239799999999963e-01
4.950000000000000000e+02,5.820239799999999963e-01
4.960000000000000000e+02,5.820239799999999963e-01
4.970000000000000000e+02,5.820239799999999963e-01
4.980000000000000000e+02,5.820239799999999963e-01
4.990000000000000000e+02,5.820239799999999963e-01
5.000000000000000000e+02,5.820239799999999963e-01
5.010000000000000000e+02,5.820239799999999963e-01
5.020000000000000000e+02,5.820239799999999963e-01
5.030000000000000000e+02,5.820239799999999963e-01
5.040000000000000000e+02,5.820239799999999963e-01
5.050000000000000000e+02,5.820239799999999963e-01
5.060000000000000000e+02,5.820239799999999963e-01
5.070000000000000000e+02,5.820239799999999963e-01
5.080000000000000000e+02,5.820239799999999963e-01
5.090000000000000000e+02,5.820239799999999963e-01
5.100000000000000000e+02,5.820239799999999963e-01
5.110000000000000000e+02,5.820239799999999963e-01
5.120000000000000000e+02,5.820239799999999963e-01
5.130000000000000000e+02,5.820239799999999963e-01
5.140000000000000000e+02,5.820239799999999963e-01
5.150000000000000000e+02,5.820239799999999963e-01
5.160000000000000000e+02,5.820239799999999963e-01
5.170000000000000000e+02,5.820239799999999963e-01
5.180000000000000000e+02,5.820239799999999963e-01
5.190000000000000000e+02,5.820239799999999963e-01
5.200000000000000000e+02,5.820239799999999963e-01
5.210000000000000000e+02,5.820239799999999963e-01
5.220000000000000000e+02,5.820239799999999963e-01
5.230000000000000000e+02,5.820239799999999963e-01
5.240000000000000000e+02,5.820239799999999963e-01
5.250000000000000000e+02,5.820239799999999963e-01
5.260000000000000000e+02,5.820239799999999963e-01
5.270000000000000000e+02,5.820239799999999963e-01
5.280000000000000000e+02,5.820239799999999963e-01
5.290000000000000000e+02,5.820239799999999963e-01
5.300000000000000000e+02,5.820239799999999963e-01
5.310000000000000000e+02,5.820239799999999963e-01
5.320000000000000000e+02,5.820239799999999963e-01
5.330000000000000000e+02,5.820239799999999963e-01
5.340000000000000000e+02,5.820239799999999963e-01
5.350000000000000000e+02,5.820239799999999963e-01
5.360000000000000000e+02,5.820239799999999963e-01
5.370000000000000000e+02,5.820239799999999963e-01
5.380000000000000000e+02,5.820239799999999963e-01
5.390000000000000000e+02,5.820239799999999963e-01
5.400000000000000000e+02,5.820239799999999963e-01
5.410000000000000000e+02,5.820239799999999963e-01
5.420000000000000000e+02,5.820239799999999963e-01
5.430000000000000000e+02,5.820239799999999963e-01
5.440000000000000000e+02,5.820239799999999963e-01
5.450000000000000000e+02,5.820239799999999963e-01
5.460000000000000000e+02,5.820239799999999963e-01
5.470000000000000000e+02,5.820239799999999963e-01
5.480000000000000000e+02,5.820239799999999963e-01
5.490000000000000000e+02,5.820239799999999963e-01
5.500000000000000000e+02,5.820239799999999963e-01
5.510000000000000000e+02,5.820239799999999963e-01
5.520000000000000000e+02,5.820239799999999963e-01
5.530000000000000000e+02,5.820239799999999963e-01
5.540000000000000000e+02,5.820239799999999963e-01
5.550000000000000000e+02,5.820239799999999963e-01
5.560000000000000000e+02,5.820239799999999963e-01
5.570000000000000000e+02,5.820239799999999963e-01
5.580000000000000000e+02,5.820239799999999963e-01
5.590000000000000000e+02,5.820239799999999963e-01
5.600000000000000000e+02,5.820239799999999963e-01
5.610000000000000000e+02,5.820239799999999963e-01
5.620000000000000000e+02,5.820239799999999963e-01
5.630000000000000000e+02,5.820239799999999963e-01
5.640000000000000000e+02,5.820239799999999963e-01
5.650000000000000000e+02,5.820239799999999963e-01
5.660000000000000000e+02,5.820239799999999963e-01
5.670000000000000000e+02,5.820239799999999963e-01
5.680000000000000000e+02,5.820239799999999963e-01
5.690000000000000000e+02,5.820239799999999963e-01
5.700000000000000000e+02,5.820239799999999963e-01
5.710000000000000000e+02,5.820239799999999963e-01
5.720000000000000000e+02,5.820239799999999963e-01
5.730000000000000000e+02,5.820239799999999963e-01
5.740000000000000000e+02,5.820239799999999963e-01
5.750000000000000000e+02,5.820239799999999963e-01
5.760000000000000000e+02,5.820239799999999963e-01
5.770000000000000000e+02,5.820239799999999963e-01
5.780000000000000000e+02,5.820239799999999963e-01
5.790000000000000000e+02,5.820239799999999963e-01
5.800000000000000000e+02,5.820239799999999963e-01
5.810000000000000000e+02,5.820239799999999963e-01
5.820000000000000000e+02,5.820239799999999963e-01
5.830000000000000000e+02,5.820239799999999963e-01
5.840000000000000000e+02,5.820239799999999963e-01
5.850000000000000000e+02,5.820239799999999963e-01
5.860000000000000000e+02,5.820239799999999963e-01
5.870000000000000000e+02,5.820239799999999963e-01
5.880000000000000000e+02,5.820239799999999963e-01
5.890000000000000000e+02,5.820239799999999963e-01
5.900000000000000000e+02,5.820239799999999963e-01
5.910000000000000000e+02,5.820239799999999963e-01
5.920000000000000000e+02,5.820239799999999963e-01
5.930000000000000000e+02,5.820239799999999963e-01
5.940000000000000000e+02,5.820239799999999963e-01
5.950000000000000000e+02,5.820239799999999963e-01
5.960000000000000000e+02,5.820239799999999963e-01
5.970000000000000000e+02,5.820239799999999963e-01
5.980000000000000000e+02,5.820239799999999963e-01
5.990000000000000000e+02,5.820239799999999963e-01