# Time [s], Temperature [C]
1.000000000000000000e+00,2.500000000000000000e+01
2.000000000000000000e+00,2.500000000000000000e+01
3.000000000000000000e+00,2.500000000000000000e+01
4.000000000000000000e+00,2.500000000000000000e+01
5.000000000000000000e+00,2.500000199999999850e+01
6.000000000000000000e+00,2.500000599999999906e+01
7.000000000000000000e+00,2.500002299999999877e+01
8.000000000000000000e+00,2.500007599999999996e+01
9.000000000000000000e+00,2.500021900000000130e+01
1.000000000000000000e+01,2.500055499999999853e+01
1.100000000000000000e+01,2.500125299999999839e+01
1.200000000000000000e+01,2.500256299999999854e+01
1.300000000000000000e+01,2.500482600000000133e+01
1.400000000000000000e+01,2.500846100000000050e+01
1.500000000000000000e+01,2.501396400000000142e+01
1.600000000000000000e+01,2.502187299999999937e+01
1.700000000000000000e+01,2.503277399999999986e+01
1.800000000000000000e+01,2.504725099999999927e+01
1.900000000000000000e+01,2.506589299999999909e+01
2.000000000000000000e+01,2.508926400000000001e+01
2.100000000000000000e+01,2.511789900000000131e+01
2.200000000000000000e+01,2.515229400000000126e+01
2.300000000000000000e+01,2.519290000000000163e+01
2.400000000000000000e+01,2.524011799999999894e+01
2.500000000000000000e+01,2.529429800000000128e+01
2.600000000000000000e+01,2.535574700000000092e+01
2.700000000000000000e+01,2.542471899999999962e+01
2.800000000000000000e+01,2.550141700000000000e+01
2.900000000000000000e+01,2.558600799999999964e+01
3.000000000000000000e+01,2.567861900000000119e+01
3.100000000000000000e+01,2.577933700000000172e+01
3.200000000000000000e+01,2.588821599999999989e+01
3.300000000000000000e+01,2.600527800000000056e+01
3.400000000000000000e+01,2.613051600000000008e+01
3.500000000000000000e+01,2.626390599999999864e+01
3.600000000000000000e+01,2.640539599999999965e+01
3.700000000000000000e+01,2.655491100000000060e+01
3.800000000000000000e+01,2.671237400000000051e+01
3.900000000000000000e+01,2.687767399999999895e+01
4.000000000000000000e+01,2.705070299999999861e+01
4.100000000000000000e+01,2.723133500000000140e+01
4.200000000000000000e+01,2.741943900000000056e+01
4.300000000000000000e+01,2.761487400000000036e+01
4.400000000000000000e+01,2.781749699999999947e+01
4.500000000000000000e+01,2.802715099999999993e+01
4.600000000000000000e+01,2.824368499999999926e+01
4.700000000000000000e+01,2.846693600000000046e+01
4.800000000000000000e+01,2.869674900000000051e+01
4.900000000000000000e+01,2.893295900000000032e+01
5.000000000000000000e+01,2.917540599999999884e+01
5.100000000000000000e+01,2.942393699999999868e+01
5.200000000000000000e+01,2.967837499999999906e+01
5.300000000000000000e+01,2.993856800000000007e+01
5.400000000000000000e+01,3.020435700000000168e+01
5.500000000000000000e+01,3.047559400000000096e+01
5.600000000000000000e+01,3.075210799999999978e+01
5.700000000000000000e+01,3.103374900000000025e+01
5.800000000000000000e+01,3.132036199999999937e+01
5.900000000000000000e+01,3.161180900000000094e+01
6.000000000000000000e+01,3.190793999999999997e+01
6.100000000000000000e+01,3.220861099999999766e+01
6.200000000000000000e+01,3.251367199999999968e+01
6.300000000000000000e+01,3.282300599999999946e+01
6.400000000000000000e+01,3.313646700000000322e+01
6.500000000000000000e+01,3.345392199999999860e+01
6.600000000000000000e+01,3.377523800000000165e+01
6.700000000000000000e+01,3.410030400000000128e+01
6.800000000000000000e+01,3.442898900000000140e+01
6.900000000000000000e+01,3.476117700000000355e+01
7.000000000000000000e+01,3.509674100000000152e+01
7.100000000000000000e+01,3.543556999999999846e+01
7.200000000000000000e+01,3.577754999999999797e+01
7.300000000000000000e+01,3.612258899999999784e+01
7.400000000000000000e+01,3.647057300000000168e+01
7.500000000000000000e+01,3.682139999999999702e+01
7.600000000000000000e+01,3.717496500000000026e+01
7.700000000000000000e+01,3.753118099999999657e+01
7.800000000000000000e+01,3.788994199999999779e+01
7.900000000000000000e+01,3.825116299999999825e+01
8.000000000000000000e+01,3.861475800000000191e+01
8.100000000000000000e+01,3.898062500000000341e+01
8.200000000000000000e+01,3.934870500000000249e+01
8.300000000000000000e+01,3.971890599999999694e+01
8.400000000000000000e+01,4.009114499999999737e+01
8.500000000000000000e+01,4.046534299999999718e+01
8.600000000000000000e+01,4.084142700000000303e+01
8.700000000000000000e+01,4.121932199999999824e+01
8.800000000000000000e+01,4.159896100000000274e+01
8.900000000000000000e+01,4.198026999999999731e+01
9.000000000000000000e+01,4.236319000000000301e+01
9.100000000000000000e+01,4.274765399999999715e+01
9.200000000000000000e+01,4.313359499999999969e+01
9.300000000000000000e+01,4.352094999999999914e+01
9.400000000000000000e+01,4.390966800000000347e+01
9.500000000000000000e+01,4.429968600000000123e+01
9.600000000000000000e+01,4.469094799999999879e+01
9.700000000000000000e+01,4.508340100000000206e+01
9.800000000000000000e+01,4.547699399999999770e+01
9.900000000000000000e+01,4.587167000000000172e+01
1.000000000000000000e+02,4.626738699999999938e+01
1.010000000000000000e+02,4.666408899999999704e+01
1.020000000000000000e+02,4.706173700000000082e+01
1.030000000000000000e+02,4.746028100000000194e+01
1.040000000000000000e+02,4.785967999999999734e+01
1.050000000000000000e+02,4.825988399999999956e+01
1.060000000000000000e+02,4.866086200000000161e+01
1.070000000000000000e+02,4.906257200000000296e+01
1.080000000000000000e+02,4.946497000000000099e+01
1.090000000000000000e+02,4.986802300000000088e+01
1.100000000000000000e+02,5.027168999999999954e+01
1.110000000000000000e+02,5.067593800000000215e+01
1.120000000000000000e+02,5.108073399999999964e+01
1.130000000000000000e+02,5.148604199999999764e+01
1.140000000000000000e+02,5.189183400000000290e+01
1.150000000000000000e+02,5.229807300000000225e+01
1.160000000000000000e+02,5.270473100000000244e+01
1.170000000000000000e+02,5.311177800000000104e+01
1.180000000000000000e+02,5.351918799999999976e+01
1.190000000000000000e+02,5.392692600000000169e+01
1.200000000000000000e+02,5.433497200000000049e+01
1.210000000000000000e+02,5.474329399999999879e+01
1.220000000000000000e+02,5.515187099999999987e+01
1.230000000000000000e+02,5.556067699999999832e+01
1.240000000000000000e+02,5.596968499999999835e+01
1.250000000000000000e+02,5.637887599999999821e+01
1.260000000000000000e+02,5.678822300000000212e+01
1.270000000000000000e+02,5.719770799999999866e+01
1.280000000000000000e+02,5.760731100000000282e+01
1.290000000000000000e+02,5.801700999999999908e+01
1.300000000000000000e+02,5.842678099999999830e+01
1.310000000000000000e+02,5.883660900000000282e+01
1.320000000000000000e+02,5.924647499999999667e+01
1.330000000000000000e+02,5.965636099999999686e+01
1.340000000000000000e+02,6.006624999999999659e+01
1.350000000000000000e+02,6.047612399999999866e+01
1.360000000000000000e+02,6.088596299999999673e+01
1.370000000000000000e+02,6.129575700000000182e+01
1.380000000000000000e+02,6.170548999999999751e+01
1.390000000000000000e+02,6.211514300000000333e+01
1.400000000000000000e+02,6.252470399999999984e+01
1.410000000000000000e+02,6.293416200000000060e+01
1.420000000000000000e+02,6.334349799999999675e+01
1.430000000000000000e+02,6.375269699999999773e+01
1.440000000000000000e+02,6.416175800000000606e+01
1.450000000000000000e+02,6.457065599999999961e+01
1.460000000000000000e+02,6.497937799999999697e+01
1.470000000000000000e+02,6.538792399999999816e+01
1.480000000000000000e+02,6.579627999999999588e+01
1.490000000000000000e+02,6.620442199999999389e+01
1.500000000000000000e+02,6.661237300000000516e+01
1.510000000000000000e+02,6.702008800000000122e+01
1.520000000000000000e+02,6.742757400000000700e+01
1.530000000000000000e+02,6.783480799999999533e+01
1.540000000000000000e+02,6.824178299999999808e+01
1.550000000000000000e+02,6.864849900000000105e+01
1.560000000000000000e+02,6.905493900000000451e+01
1.570000000000000000e+02,6.946110500000000343e+01
1.580000000000000000e+02,6.986697399999999902e+01
1.590000000000000000e+02,7.027254499999999382e+01
1.600000000000000000e+02,7.067780299999999727e+01
1.610000000000000000e+02,7.108275600000000338e+01
1.620000000000000000e+02,7.148738899999999319e+01
1.630000000000000000e+02,7.189169300000000362e+01
1.640000000000000000e+02,7.229566199999999299e+01
1.650000000000000000e+02,7.269928699999999822e+01
1.660000000000000000e+02,7.310257000000000005e+01
1.670000000000000000e+02,7.350550099999999532e+01
1.680000000000000000e+02,7.390806600000000515e+01
1.690000000000000000e+02,7.431027199999999766e+01
1.700000000000000000e+02,7.471210499999999399e+01
1.710000000000000000e+02,7.511356399999999667e+01
1.720000000000000000e+02,7.551464099999999746e+01
1.730000000000000000e+02,7.591532899999999984e+01
1.740000000000000000e+02,7.631562800000000379e+01
1.750000000000000000e+02,7.671552300000000457e+01
1.760000000000000000e+02,7.711502799999999525e+01
1.770000000000000000e+02,7.751412200000000041e+01
1.780000000000000000e+02,7.791280399999999418e+01
1.790000000000000000e+02,7.831107299999999327e+01
1.800000000000000000e+02,7.870892299999999864e+01
1.810000000000000000e+02,7.910634600000000205e+01
1.820000000000000000e+02,7.950334900000000005e+01
1.830000000000000000e+02,7.989991799999999955e+01
1.840000000000000000e+02,8.029605899999999963e+01
1.850000000000000000e+02,8.069175699999999551e+01
1.860000000000000000e+02,8.108702099999999291e+01
1.870000000000000000e+02,8.148184200000000033e+01
1.880000000000000000e+02,8.187620499999999879e+01
1.890000000000000000e+02,8.227012600000000475e+01
1.900000000000000000e+02,8.266358900000000176e+01
1.910000000000000000e+02,8.305660199999999804e+01
1.920000000000000000e+02,8.344916499999999360e+01
1.930000000000000000e+02,8.384125500000000386e+01
1.940000000000000000e+02,8.423287999999999442e+01
1.950000000000000000e+02,8.462403899999999624e+01
1.960000000000000000e+02,8.501474000000000331e+01
1.970000000000000000e+02,8.540496100000000013e+01
1.980000000000000000e+02,8.579471599999999398e+01
1.990000000000000000e+02,8.618399800000000255e+01
2.000000000000000000e+02,8.657280699999999740e+01
2.010000000000000000e+02,8.696113599999999622e+01
2.020000000000000000e+02,8.734898400000000152e+01
2.030000000000000000e+02,8.773635899999999310e+01
2.040000000000000000e+02,8.812323800000000062e+01
2.050000000000000000e+02,8.850963600000000042e+01
2.060000000000000000e+02,8.889554599999999596e+01
2.070000000000000000e+02,8.928096800000000144e+01
2.080000000000000000e+02,8.966589399999999443e+01
2.090000000000000000e+02,9.005033099999999990e+01
2.100000000000000000e+02,9.043427300000000457e+01
2.110000000000000000e+02,9.081771899999999675e+01
2.120000000000000000e+02,9.120066799999999319e+01
2.130000000000000000e+02,9.158312200000000303e+01
2.140000000000000000e+02,9.196507300000000384e+01
2.150000000000000000e+02,9.234652699999999470e+01
2.160000000000000000e+02,9.272746999999999673e+01
2.170000000000000000e+02,9.310791000000000395e+01
2.180000000000000000e+02,9.348785399999999868e+01
2.190000000000000000e+02,9.386728700000000458e+01
2.200000000000000000e+02,9.424621600000000399e+01
2.210000000000000000e+02,9.462464099999999689e+01
2.220000000000000000e+02,9.500254800000000444e+01
2.230000000000000000e+02,9.537995899999999949e+01
2.240000000000000000e+02,9.575685900000000572e+01
2.250000000000000000e+02,9.613325500000000545e+01
2.260000000000000000e+02,9.650914799999999616e+01
2.270000000000000000e+02,9.688452100000000655e+01
2.280000000000000000e+02,9.725938399999999717e+01
2.290000000000000000e+02,9.763372800000000495e+01
2.300000000000000000e+02,9.800756800000000624e+01
2.310000000000000000e+02,9.838088999999999373e+01
2.320000000000000000e+02,9.875369999999999493e+01
2.330000000000000000e+02,9.912599199999999655e+01
2.340000000000000000e+02,9.949776500000000112e+01
2.350000000000000000e+02,9.986901899999999443e+01
2.360000000000000000e+02,1.002397500000000008e+02
2.370000000000000000e+02,1.006099700000000041e+02
2.380000000000000000e+02,1.009796800000000019e+02
2.390000000000000000e+02,1.013488700000000051e+02
2.400000000000000000e+02,1.017175399999999996e+02
2.410000000000000000e+02,1.020857100000000059e+02
2.420000000000000000e+02,1.024533500000000004e+02
2.430000000000000000e+02,1.028204700000000003e+02
2.440000000000000000e+02,1.031870700000000056e+02
2.450000000000000000e+02,1.035531500000000023e+02
2.460000000000000000e+02,1.039187100000000044e+02
2.470000000000000000e+02,1.042837499999999977e+02
2.480000000000000000e+02,1.046482599999999934e+02
2.490000000000000000e+02,1.050122700000000009e+02
2.500000000000000000e+02,1.053757300000000043e+02
2.510000000000000000e+02,1.057386900000000054e+02
2.520000000000000000e+02,1.061011400000000009e+02
2.530000000000000000e+02,1.064630499999999955e+02
2.540000000000000000e+02,1.068244600000000020e+02
2.550000000000000000e+02,1.071853299999999933e+02
2.560000000000000000e+02,1.075456800000000044e+02
2.570000000000000000e+02,1.079055199999999957e+02
2.580000000000000000e+02,1.082648200000000003e+02
2.590000000000000000e+02,1.086236099999999993e+02
2.600000000000000000e+02,1.089818599999999975e+02
2.610000000000000000e+02,1.093396099999999933e+02
2.620000000000000000e+02,1.096968499999999977e+02
2.630000000000000000e+02,1.100535600000000045e+02
2.640000000000000000e+02,1.104097399999999993e+02
2.650000000000000000e+02,1.107653999999999996e+02
2.660000000000000000e+02,1.111205400000000054e+02
2.670000000000000000e+02,1.114751499999999993e+02
2.680000000000000000e+02,1.118292500000000018e+02
2.690000000000000000e+02,1.121828200000000066e+02
2.700000000000000000e+02,1.125358700000000027e+02
2.710000000000000000e+02,1.128884099999999933e+02
2.720000000000000000e+02,1.132404300000000035e+02
2.730000000000000000e+02,1.135919200000000018e+02
2.740000000000000000e+02,1.139428900000000056e+02
2.750000000000000000e+02,1.142933400000000006e+02
2.760000000000000000e+02,1.146432700000000011e+02
2.770000000000000000e+02,1.149926799999999929e+02
2.780000000000000000e+02,1.153415600000000012e+02
2.790000000000000000e+02,1.156899300000000039e+02
2.800000000000000000e+02,1.160377900000000011e+02
2.810000000000000000e+02,1.163851200000000006e+02
2.820000000000000000e+02,1.167319300000000055e+02
2.830000000000000000e+02,1.170782200000000017e+02
2.840000000000000000e+02,1.174239900000000034e+02
2.850000000000000000e+02,1.177692299999999932e+02
2.860000000000000000e+02,1.181139699999999948e+02
2.870000000000000000e+02,1.184581799999999987e+02
2.880000000000000000e+02,1.188018900000000002e+02
2.890000000000000000e+02,1.191450700000000040e+02
2.900000000000000000e+02,1.194877199999999959e+02
2.910000000000000000e+02,1.198298599999999965e+02
2.920000000000000000e+02,1.201714800000000025e+02
2.930000000000000000e+02,1.205125900000000030e+02
2.940000000000000000e+02,1.208531799999999947e+02
2.950000000000000000e+02,1.211932599999999951e+02
2.960000000000000000e+02,1.215328099999999978e+02
2.970000000000000000e+02,1.218718499999999949e+02
2.980000000000000000e+02,1.222103699999999975e+02
2.990000000000000000e+02,1.225483799999999945e+02
3.000000000000000000e+02,1.228858699999999970e+02
3.010000000000000000e+02,1.232228499999999940e+02
3.020000000000000000e+02,1.235593099999999964e+02
3.030000000000000000e+02,1.238952599999999933e+02
3.040000000000000000e+02,1.242306999999999988e+02
3.050000000000000000e+02,1.245656100000000066e+02
3.060000000000000000e+02,1.249000099999999946e+02
3.070000000000000000e+02,1.252339099999999945e+02
3.080000000000000000e+02,1.255672799999999967e+02
3.090000000000000000e+02,1.259001499999999965e+02
3.100000000000000000e+02,1.262325000000000017e+02
3.110000000000000000e+02,1.265643400000000014e+02
3.120000000000000000e+02,1.268956699999999955e+02
3.130000000000000000e+02,1.272264899999999983e+02
3.140000000000000000e+02,1.275567900000000066e+02
3.150000000000000000e+02,1.278865799999999950e+02
3.160000000000000000e+02,1.282158699999999953e+02
3.170000000000000000e+02,1.285446300000000122e+02
3.180000000000000000e+02,1.288728900000000124e+02
3.190000000000000000e+02,1.292006499999999960e+02
3.200000000000000000e+02,1.295278900000000135e+02
3.210000000000000000e+02,1.298546299999999860e+02
3.220000000000000000e+02,1.301808499999999924e+02
3.230000000000000000e+02,1.305065600000000074e+02
3.240000000000000000e+02,1.308317700000000059e+02
3.250000000000000000e+02,1.311564600000000098e+02
3.260000000000000000e+02,1.314806499999999971e+02
3.270000000000000000e+02,1.318043399999999963e+02
3.280000000000000000e+02,1.321275200000000041e+02
3.290000000000000000e+02,1.324501799999999889e+02
3.300000000000000000e+02,1.327723499999999888e+02
3.310000000000000000e+02,1.330940099999999973e+02
3.320000000000000000e+02,1.334151599999999860e+02
3.330000000000000000e+02,1.337358099999999865e+02
3.340000000000000000e+02,1.340559499999999957e+02
3.350000000000000000e+02,1.343755999999999915e+02
3.360000000000000000e+02,1.346947299999999927e+02
3.370000000000000000e+02,1.350133700000000090e+02
3.380000000000000000e+02,1.353314799999999991e+02
3.390000000000000000e+02,1.356491100000000074e+02
3.400000000000000000e+02,1.359662299999999959e+02
3.410000000000000000e+02,1.362828499999999963e+02
3.420000000000000000e+02,1.365989700000000084e+02
3.430000000000000000e+02,1.369146000000000072e+02
3.440000000000000000e+02,1.372297100000000114e+02
3.450000000000000000e+02,1.375443300000000022e+02
3.460000000000000000e+02,1.378584400000000016e+02
3.470000000000000000e+02,1.381720599999999877e+02
3.480000000000000000e+02,1.384851700000000108e+02
3.490000000000000000e+02,1.387977899999999920e+02
3.500000000000000000e+02,1.391099100000000135e+02
3.510000000000000000e+02,1.394215399999999931e+02
3.520000000000000000e+02,1.397326500000000067e+02
3.530000000000000000e+02,1.400432700000000068e+02
3.540000000000000000e+02,1.403534099999999967e+02
3.550000000000000000e+02,1.406630399999999952e+02
3.560000000000000000e+02,1.409721700000000055e+02
3.570000000000000000e+02,1.412808100000000024e+02
3.580000000000000000e+02,1.415889400000000080e+02
3.590000000000000000e+02,1.418965900000000033e+02
3.600000000000000000e+02,1.422037500000000136e+02
3.610000000000000000e+02,1.425104100000000074e+02
3.620000000000000000e+02,1.428165700000000129e+02
3.630000000000000000e+02,1.431222400000000050e+02
3.640000000000000000e+02,1.434274100000000089e+02
3.650000000000000000e+02,1.437321000000000026e+02
3.660000000000000000e+02,1.440363000000000113e+02
3.670000000000000000e+02,1.443400000000000034e+02
3.680000000000000000e+02,1.446432000000000073e+02
3.690000000000000000e+02,1.449459200000000010e+02
3.700000000000000000e+02,1.452481400000000065e+02
3.710000000000000000e+02,1.455498800000000017e+02
3.720000000000000000e+02,1.458511399999999867e+02
3.730000000000000000e+02,1.461518900000000087e+02
3.740000000000000000e+02,1.464521499999999889e+02
3.750000000000000000e+02,1.467519399999999905e+02
3.760000000000000000e+02,1.470512200000000007e+02
3.770000000000000000e+02,1.473500200000000007e+02
3.780000000000000000e+02,1.476483499999999935e+02
3.790000000000000000e+02,1.479461699999999951e+02
3.800000000000000000e+02,1.482435199999999895e+02
3.810000000000000000e+02,1.485403699999999958e+02
3.820000000000000000e+02,1.488367299999999886e+02
3.830000000000000000e+02,1.491326300000000060e+02
3.840000000000000000e+02,1.494280200000000036e+02
3.850000000000000000e+02,1.497229299999999910e+02
3.860000000000000000e+02,1.500173599999999965e+02
3.870000000000000000e+02,1.503113099999999918e+02
3.880000000000000000e+02,1.506047800000000052e+02
3.890000000000000000e+02,1.508977700000000084e+02
3.900000000000000000e+02,1.511902599999999950e+02
3.910000000000000000e+02,1.514822800000000029e+02
3.920000000000000000e+02,1.517737999999999943e+02
3.930000000000000000e+02,1.520648700000000133e+02
3.940000000000000000e+02,1.523554399999999873e+02
3.950000000000000000e+02,1.526455400000000111e+02
3.960000000000000000e+02,1.529351499999999930e+02
3.970000000000000000e+02,1.532242699999999900e+02
3.980000000000000000e+02,1.535129399999999862e+02
3.990000000000000000e+02,1.538010999999999910e+02
4.000000000000000000e+02,1.540888099999999952e+02
4.010000000000000000e+02,1.543760200000000111e+02
4.020000000000000000e+02,1.546627699999999948e+02
4.030000000000000000e+02,1.549490399999999966e+02
4.040000000000000000e+02,1.552348200000000134e+02
4.050000000000000000e+02,1.555201299999999947e+02
4.060000000000000000e+02,1.558049599999999941e+02
4.070000000000000000e+02,1.560893399999999929e+02
4.080000000000000000e+02,1.563732300000000066e+02
4.090000000000000000e+02,1.566566300000000069e+02
4.100000000000000000e+02,1.569395800000000065e+02
4.110000000000000000e+02,1.572220499999999959e+02
4.120000000000000000e+02,1.575040300000000002e+02
4.130000000000000000e+02,1.577855500000000006e+02
4.140000000000000000e+02,1.580665999999999940e+02
4.150000000000000000e+02,1.583471700000000055e+02
4.160000000000000000e+02,1.586272899999999879e+02
4.170000000000000000e+02,1.589069200000000137e+02
4.180000000000000000e+02,1.591861000000000104e+02
4.190000000000000000e+02,1.594647799999999904e+02
4.200000000000000000e+02,1.597430099999999982e+02
4.210000000000000000e+02,1.600207699999999988e+02
4.220000000000000000e+02,1.602980699999999956e+02
4.230000000000000000e+02,1.605748700000000042e+02
4.240000000000000000e+02,1.608512299999999868e+02
4.250000000000000000e+02,1.611271199999999908e+02
4.260000000000000000e+02,1.614025300000000129e+02
4.270000000000000000e+02,1.616774699999999996e+02
4.280000000000000000e+02,1.619519699999999887e+02
4.290000000000000000e+02,1.622259999999999991e+02
4.300000000000000000e+02,1.624995399999999961e+02
4.310000000000000000e+02,1.627726299999999924e+02
4.320000000000000000e+02,1.630452600000000132e+02
4.330000000000000000e+02,1.633174300000000017e+02
4.340000000000000000e+02,1.635891300000000115e+02
4.350000000000000000e+02,1.638603699999999890e+02
4.360000000000000000e+02,1.641311300000000131e+02
4.370000000000000000e+02,1.644014400000000080e+02
4.380000000000000000e+02,1.646713000000000022e+02
4.390000000000000000e+02,1.649406899999999894e+02
4.400000000000000000e+02,1.652096099999999979e+02
4.410000000000000000e+02,1.654780900000000088e+02
4.420000000000000000e+02,1.657460900000000095e+02
4.430000000000000000e+02,1.660136400000000094e+02
4.440000000000000000e+02,1.662807300000000055e+02
4.450000000000000000e+02,1.665473599999999976e+02
4.460000000000000000e+02,1.668135399999999890e+02
4.470000000000000000e+02,1.670792500000000018e+02
4.480000000000000000e+02,1.673445100000000139e+02
4.490000000000000000e+02,1.676093099999999936e+02
4.500000000000000000e+02,1.678736600000000010e+02
4.510000000000000000e+02,1.681375600000000077e+02
4.520000000000000000e+02,1.684009900000000073e+02
4.530000000000000000e+02,1.686639700000000062e+02
4.540000000000000000e+02,1.689265000000000043e+02
4.550000000000000000e+02,1.691885699999999986e+02
4.560000000000000000e+02,1.694501799999999889e+02
4.570000000000000000e+02,1.697113500000000101e+02
4.580000000000000000e+02,1.699720599999999990e+02
4.590000000000000000e+02,1.702323299999999904e+02
4.600000000000000000e+02,1.704921300000000031e+02
4.610000000000000000e+02,1.707514799999999866e+02
4.620000000000000000e+02,1.710103900000000010e+02
4.630000000000000000e+02,1.712688400000000115e+02
4.640000000000000000e+02,1.715268599999999992e+02
4.650000000000000000e+02,1.717844100000000083e+02
4.660000000000000000e+02,1.720415199999999913e+02
4.670000000000000000e+02,1.722981900000000053e+02
4.680000000000000000e+02,1.725543999999999869e+02
4.690000000000000000e+02,1.728101499999999930e+02
4.700000000000000000e+02,1.730654800000000080e+02
4.710000000000000000e+02,1.733203399999999874e+02
4.720000000000000000e+02,1.735747499999999945e+02
4.730000000000000000e+02,1.738287400000000105e+02
4.740000000000000000e+02,1.740822799999999972e+02
4.750000000000000000e+02,1.743353600000000085e+02
4.760000000000000000e+02,1.745879999999999939e+02
4.770000000000000000e+02,1.748401900000000069e+02
4.780000000000000000e+02,1.750919499999999971e+02
4.790000000000000000e+02,1.753432599999999866e+02
4.800000000000000000e+02,1.755941300000000069e+02
4.810000000000000000e+02,1.758445700000000045e+02
4.820000000000000000e+02,1.760945399999999950e+02
4.830000000000000000e+02,1.763440899999999942e+02
4.840000000000000000e+02,1.765931999999999960e+02
4.850000000000000000e+02,1.768418599999999969e+02
4.860000000000000000e+02,1.770900900000000036e+02
4.870000000000000000e+02,1.773378600000000063e+02
4.880000000000000000e+02,1.775852099999999893e+02
4.890000000000000000e+02,1.778321200000000033e+02
4.900000000000000000e+02,1.780785799999999881e+02
4.910000000000000000e+02,1.783246200000000101e+02
4.920000000000000000e+02,1.785702100000000030e+02
4.930000000000000000e+02,1.788153499999999951e+02
4.940000000000000000e+02,1.790600900000000024e+02
4.950000000000000000e+02,1.793043700000000058e+02
4.960000000000000000e+02,1.795482199999999864e+02
4.970000000000000000e+02,1.797916299999999978e+02
4.980000000000000000e+02,1.800346099999999865e+02
4.990000000000000000e+02,1.802771600000000092e+02
5.000000000000000000e+02,1.805192600000000027e+02
5.010000000000000000e+02,1.807609400000000051e+02
5.020000000000000000e+02,1.810021800000000098e+02
5.030000000000000000e+02,1.812430099999999982e+02
5.040000000000000000e+02,1.814833800000000110e+02
5.050000000000000000e+02,1.817233400000000074e+02
5.060000000000000000e+02,1.819628600000000063e+02
5.070000000000000000e+02,1.822019500000000107e+02
5.080000000000000000e+02,1.824406099999999924e+02
5.090000000000000000e+02,1.826788500000000113e+02
5.100000000000000000e+02,1.829166400000000010e+02
5.110000000000000000e+02,1.831540200000000027e+02
5.120000000000000000e+02,1.833909600000000069e+02
5.130000000000000000e+02,1.836274899999999946e+02
5.140000000000000000e+02,1.838635899999999879e+02
5.150000000000000000e+02,1.840992400000000089e+02
5.160000000000000000e+02,1.843344899999999882e+02
5.170000000000000000e+02,1.845693100000000015e+02
5.180000000000000000e+02,1.848036999999999921e+02
5.190000000000000000e+02,1.850376699999999914e+02
5.200000000000000000e+02,1.852712099999999964e+02
5.210000000000000000e+02,1.855043200000000070e+02
5.220000000000000000e+02,1.857370099999999979e+02
5.230000000000000000e+02,1.859692799999999977e+02
5.240000000000000000e+02,1.862011400000000094e+02
5.250000000000000000e+02,1.864325699999999983e+02
5.260000000000000000e+02,1.866635699999999929e+02
5.270000000000000000e+02,1.868941700000000026e+02
5.280000000000000000e+02,1.871243299999999863e+02
5.290000000000000000e+02,1.873540800000000104e+02
5.300000000000000000e+02,1.875834000000000117e+02
5.310000000000000000e+02,1.878123199999999997e+02
5.320000000000000000e+02,1.880408199999999965e+02
5.330000000000000000e+02,1.882688899999999990e+02
5.340000000000000000e+02,1.884965400000000102e+02
5.350000000000000000e+02,1.887237700000000018e+02
5.360000000000000000e+02,1.889505900000000054e+02
5.370000000000000000e+02,1.891769999999999925e+02
5.380000000000000000e+02,1.894029999999999916e+02
5.390000000000000000e+02,1.896285699999999963e+02
5.400000000000000000e+02,1.898537399999999877e+02
5.410000000000000000e+02,1.900784800000000132e+02
5.420000000000000000e+02,1.903028099999999938e+02
5.430000000000000000e+02,1.905267299999999864e+02
5.440000000000000000e+02,1.907502399999999909e+02
5.450000000000000000e+02,1.909733400000000074e+02
5.460000000000000000e+02,1.911960300000000075e+02
5.470000000000000000e+02,1.914182999999999879e+02
5.480000000000000000e+02,1.916401700000000119e+02
5.490000000000000000e+02,1.918616299999999910e+02
5.500000000000000000e+02,1.920826700000000073e+02
5.510000000000000000e+02,1.923033100000000104e+02
5.520000000000000000e+02,1.925235299999999938e+02
5.530000000000000000e+02,1.927433499999999924e+02
5.540000000000000000e+02,1.929627700000000061e+02
5.550000000000000000e+02,1.931817800000000034e+02
5.560000000000000000e+02,1.934003800000000126e+02
5.570000000000000000e+02,1.936185600000000022e+02
5.580000000000000000e+02,1.938363600000000133e+02
5.590000000000000000e+02,1.940537400000000048e+02
5.600000000000000000e+02,1.942707100000000082e+02
5.610000000000000000e+02,1.944872900000000016e+02
5.620000000000000000e+02,1.947034500000000037e+02
5.630000000000000000e+02,1.949191999999999894e+02
5.640000000000000000e+02,1.951345699999999965e+02
5.650000000000000000e+02,1.953495299999999872e+02
5.660000000000000000e+02,1.955640899999999931e+02
5.670000000000000000e+02,1.957782400000000109e+02
5.680000000000000000e+02,1.959919899999999870e+02
5.690000000000000000e+02,1.962053500000000099e+02
5.700000000000000000e+02,1.964182999999999879e+02
5.710000000000000000e+02,1.966308699999999874e+02
5.720000000000000000e+02,1.968430299999999988e+02
5.730000000000000000e+02,1.970547899999999970e+02
5.740000000000000000e+02,1.972661600000000135e+02
5.750000000000000000e+02,1.974771299999999883e+02
5.760000000000000000e+02,1.976877000000000066e+02
5.770000000000000000e+02,1.978978700000000117e+02
5.780000000000000000e+02,1.981076500000000067e+02
5.790000000000000000e+02,1.983170299999999884e+02
5.800000000000000000e+02,1.985260199999999884e+02
5.810000000000000000e+02,1.987346200000000067e+02
5.820000000000000000e+02,1.989428100000000086e+02
5.830000000000000000e+02,1.991506200000000035e+02
5.840000000000000000e+02,1.993580300000000136e+02
5.850000000000000000e+02,1.995650599999999883e+02
5.860000000000000000e+02,1.997716800000000035e+02
5.870000000000000000e+02,1.999779200000000117e+02
5.880000000000000000e+02,2.001837600000000066e+02
5.890000000000000000e+02,2.003892199999999946e+02
5.900000000000000000e+02,2.005942799999999977e+02
5.910000000000000000e+02,2.007989699999999971e+02
5.920000000000000000e+02,2.010032500000000084e+02
5.930000000000000000e+02,2.012071500000000128e+02
5.940000000000000000e+02,2.014106600000000071e+02
5.950000000000000000e+02,2.016137799999999913e+02
5.960000000000000000e+02,2.018165300000000002e+02
5.970000000000000000e+02,2.020188799999999958e+02
5.980000000000000000e+02,2.022208400000000097e+02
5.990000000000000000e+02,2.024224199999999882e+02