# Time [s], Convective Heat Transfer Coefficient [W/m2K]
1.000000000000000000e+00,0.000000000000000000e+00
2.000000000000000000e+00,0.000000000000000000e+00
3.000000000000000000e+00,0.000000000000000000e+00
4.000000000000000000e+00,0.000000000000000000e+00
5.000000000000000000e+00,1.915079995362458862e-02
6.000000000000000000e+00,3.380449737731881787e-02
7.000000000000000000e+00,5.636813249252742991e-02
8.000000000000000000e+00,8.660989207237568266e-02
9.000000000000000000e+00,1.255104017028736973e-01
1.000000000000000000e+01,1.738804897403691818e-01
1.100000000000000000e+01,2.317438186876264183e-01
1.200000000000000000e+01,2.986365978799215837e-01
1.300000000000000000e+01,3.739372799205827325e-01
1.400000000000000000e+01,4.568036199659288310e-01
1.500000000000000000e+01,5.463228746126668200e-01
1.600000000000000000e+01,6.415496655185152219e-01
1.700000000000000000e+01,7.415827911353044533e-01
1.800000000000000000e+01,8.455809303502269669e-01
1.900000000000000000e+01,9.527848991001709456e-01
2.000000000000000000e+01,1.062519300908164155e+00
2.100000000000000000e+01,1.174190488082893502e+00
2.200000000000000000e+01,1.287273712157892325e+00
2.300000000000000000e+01,1.401319326647580521e+00
2.400000000000000000e+01,1.515948544049391611e+00
2.500000000000000000e+01,1.630828400629397157e+00
2.600000000000000000e+01,1.745666026784686409e+00
2.700000000000000000e+01,1.860232269263497162e+00
2.800000000000000000e+01,1.974321477928673296e+00
2.900000000000000000e+01,2.087760865416918410e+00
3.000000000000000000e+01,2.200404938935470067e+00
3.100000000000000000e+01,2.312135976006688409e+00
3.200000000000000000e+01,2.422856353000979457e+00
3.300000000000000000e+01,2.532476378237876968e+00
3.400000000000000000e+01,2.640939141430096893e+00
3.500000000000000000e+01,2.748180442195292006e+00
3.600000000000000000e+01,2.854165293844627804e+00
3.700000000000000000e+01,2.958861939490058379e+00
3.800000000000000000e+01,3.062239802968174551e+00
3.900000000000000000e+01,3.164280025384285100e+00
4.000000000000000000e+01,3.264971113916858236e+00
4.100000000000000000e+01,3.364306722600127308e+00
4.200000000000000000e+01,3.462275857394586875e+00
4.300000000000000000e+01,3.558880376441728721e+00
4.400000000000000000e+01,3.654127055299205118e+00
4.500000000000000000e+01,3.748019725033031158e+00
4.600000000000000000e+01,3.840562357015403716e+00
4.700000000000000000e+01,3.931759587424031199e+00
4.800000000000000000e+01,4.021621307933525458e+00
4.900000000000000000e+01,4.110157287011122484e+00
5.000000000000000000e+01,4.197377225255502609e+00
5.100000000000000000e+01,4.283296870447822258e+00
5.200000000000000000e+01,4.367931690971094127e+00
5.300000000000000000e+01,4.451287640864999062e+00
5.400000000000000000e+01,4.533387133486850296e+00
5.500000000000000000e+01,4.614239373821511947e+00
5.600000000000000000e+01,4.693866186220260417e+00
5.700000000000000000e+01,4.772285806101104200e+00
5.800000000000000000e+01,4.849513035406727290e+00
5.900000000000000000e+01,4.925563868202016415e+00
6.000000000000000000e+01,5.000464683743238936e+00
6.100000000000000000e+01,5.074234349694967783e+00
6.200000000000000000e+01,5.146891794496430528e+00
6.300000000000000000e+01,5.218460585111006189e+00
6.400000000000000000e+01,5.288958807204619639e+00
6.500000000000000000e+01,5.358407927227114342e+00
6.600000000000000000e+01,5.426828121797926840e+00
6.700000000000000000e+01,5.494244342470531173e+00
6.800000000000000000e+01,5.560678686678862448e+00
6.900000000000000000e+01,5.626147979126474574e+00
7.000000000000000000e+01,5.690677442887205117e+00
7.100000000000000000e+01,5.754283965289267222e+00
7.200000000000000000e+01,5.816989136043164699e+00
7.300000000000000000e+01,5.878815570731440232e+00
7.400000000000000000e+01,5.939779645088536064e+00
7.500000000000000000e+01,5.999898142379883836e+00
7.600000000000000000e+01,6.059195969047878272e+00
7.700000000000000000e+01,6.117686593772737602e+00
7.800000000000000000e+01,6.175390902225005085e+00
7.900000000000000000e+01,6.232325533659470729e+00
8.000000000000000000e+01,6.288502300193471228e+00
8.100000000000000000e+01,6.343943283106863618e+00
8.200000000000000000e+01,6.398664533556265077e+00
8.300000000000000000e+01,6.452679859652264760e+00
8.400000000000000000e+01,6.506000697362148699e+00
8.500000000000000000e+01,6.558644455823746888e+00
8.600000000000000000e+01,6.610625709884509149e+00
8.700000000000000000e+01,6.661957970436819032e+00
8.800000000000000000e+01,6.712653500241778204e+00
8.900000000000000000e+01,6.762722633845327458e+00
9.000000000000000000e+01,6.812181480329321026e+00
9.100000000000000000e+01,6.861040815666764381e+00
9.200000000000000000e+01,6.909310622433512350e+00
9.300000000000000000e+01,6.957003526819958594e+00
9.400000000000000000e+01,7.004131754764890694e+00
9.500000000000000000e+01,7.050704567249217902e+00
9.600000000000000000e+01,7.096732402678658680e+00
9.700000000000000000e+01,7.142225193641220216e+00
9.800000000000000000e+01,7.187192170915301936e+00
9.900000000000000000e+01,7.231641457934193440e+00
1.000000000000000000e+02,7.275584117088514269e+00
1.010000000000000000e+02,7.319029166899850836e+00
1.020000000000000000e+02,7.361983269813012321e+00
1.030000000000000000e+02,7.404455137051064284e+00
1.040000000000000000e+02,7.446453512037614964e+00
1.050000000000000000e+02,7.487985289802353783e+00
1.060000000000000000e+02,7.529057063481108258e+00
1.070000000000000000e+02,7.569678408675830639e+00
1.080000000000000000e+02,7.610145724465340322e+00
1.090000000000000000e+02,7.650005964512471834e+00
1.100000000000000000e+02,7.689392137588688669e+00
1.110000000000000000e+02,7.728340690457268458e+00
1.120000000000000000e+02,7.766862150610029047e+00
1.130000000000000000e+02,7.804967964211191322e+00
1.140000000000000000e+02,7.842668170977574071e+00
1.150000000000000000e+02,7.879972039486106361e+00
1.160000000000000000e+02,7.916888665939612935e+00
1.170000000000000000e+02,7.953424208470146972e+00
1.180000000000000000e+02,7.989588990597694895e+00
1.190000000000000000e+02,8.025387865528461617e+00
1.200000000000000000e+02,8.060826224043882604e+00
1.210000000000000000e+02,8.095908899910707390e+00
1.220000000000000000e+02,8.130640548362512376e+00
1.230000000000000000e+02,8.165024951633778727e+00
1.240000000000000000e+02,8.199066100290428594e+00
1.250000000000000000e+02,8.232766630333134827e+00
1.260000000000000000e+02,8.266131304303591776e+00
1.270000000000000000e+02,8.299164207066981547e+00
1.280000000000000000e+02,8.331869953386620509e+00
1.290000000000000000e+02,8.364251827271647954e+00
1.300000000000000000e+02,8.396312497553804377e+00
1.310000000000000000e+02,8.428053876311606629e+00
1.320000000000000000e+02,8.459482871980988250e+00
1.330000000000000000e+02,8.490602599989284016e+00
1.340000000000000000e+02,8.521415262057317364e+00
1.350000000000000000e+02,8.551922499044620096e+00
1.360000000000000000e+02,8.582129224907475873e+00
1.370000000000000000e+02,8.612038935670476292e+00
1.380000000000000000e+02,8.641653445515297349e+00
1.390000000000000000e+02,8.670973878215873398e+00
1.400000000000000000e+02,8.700006257581616609e+00
1.410000000000000000e+02,8.728751051965749852e+00
1.420000000000000000e+02,8.757209919851449698e+00
1.430000000000000000e+02,8.785387339352649150e+00
1.440000000000000000e+02,8.813284792059153716e+00
1.450000000000000000e+02,8.840902954304127093e+00
1.460000000000000000e+02,8.868246038259243846e+00
1.470000000000000000e+02,8.895313547259513953e+00
1.480000000000000000e+02,8.922109535318448081e+00
1.490000000000000000e+02,8.948634431419364432e+00
1.500000000000000000e+02,8.974891104863973013e+00
1.510000000000000000e+02,9.000879881696707940e+00
1.520000000000000000e+02,9.026603214975017053e+00
1.530000000000000000e+02,9.052060195761940875e+00
1.540000000000000000e+02,9.077255028776130885e+00
1.550000000000000000e+02,9.102186294573108682e+00
1.560000000000000000e+02,9.126855955857910985e+00
1.570000000000000000e+02,9.151266191001626638e+00
1.580000000000000000e+02,9.175414939132869208e+00
1.590000000000000000e+02,9.199303341627087960e+00
1.600000000000000000e+02,9.222933594460172912e+00
1.610000000000000000e+02,9.246303992313956499e+00
1.620000000000000000e+02,9.269414884437983559e+00
1.630000000000000000e+02,9.292265911487000096e+00
1.640000000000000000e+02,9.314856966697002250e+00
1.650000000000000000e+02,9.337186577930177478e+00
1.660000000000000000e+02,9.359254745640765094e+00
1.670000000000000000e+02,9.381060247181531864e+00
1.680000000000000000e+02,9.402601988360867580e+00
1.690000000000000000e+02,9.423877813192067521e+00
1.700000000000000000e+02,9.444884920158660435e+00
1.710000000000000000e+02,9.465622357201628034e+00
1.720000000000000000e+02,9.486087467681244334e+00
1.730000000000000000e+02,9.506278904909549965e+00
1.740000000000000000e+02,9.526193249161710952e+00
1.750000000000000000e+02,9.545827489946738353e+00
1.760000000000000000e+02,9.565177352257261845e+00
1.770000000000000000e+02,9.584252994362934430e+00
1.780000000000000000e+02,9.603041910965311345e+00
1.790000000000000000e+02,9.621546423320314290e+00
1.800000000000000000e+02,9.639770543135451675e+00
1.810000000000000000e+02,9.657712662610851595e+00
1.820000000000000000e+02,9.675367784306105889e+00
1.830000000000000000e+02,9.692728701934804292e+00
1.840000000000000000e+02,9.709784670249673511e+00
1.850000000000000000e+02,9.726529256821221381e+00
1.860000000000000000e+02,9.742953973488139852e+00
1.870000000000000000e+02,9.759054205743799670e+00
1.880000000000000000e+02,9.774827796963423410e+00
1.890000000000000000e+02,9.790271098171629660e+00
1.900000000000000000e+02,9.805380450209540300e+00
1.910000000000000000e+02,9.820156793793174188e+00
1.920000000000000000e+02,9.834599184548219242e+00
1.930000000000000000e+02,9.848707113085673370e+00
1.940000000000000000e+02,9.862482904785970561e+00
1.950000000000000000e+02,9.875929880129664440e+00
1.960000000000000000e+02,9.889053898622758965e+00
1.970000000000000000e+02,9.901859626451980034e+00
1.980000000000000000e+02,9.914350792850374461e+00
1.990000000000000000e+02,9.926528422011738684e+00
2.000000000000000000e+02,9.938396793025461307e+00
2.010000000000000000e+02,9.949959263910526985e+00
2.020000000000000000e+02,9.961222531238352218e+00
2.030000000000000000e+02,9.972193416788405429e+00
2.040000000000000000e+02,9.982880631631267931e+00
2.050000000000000000e+02,9.993295697691396029e+00
2.060000000000000000e+02,1.000344789351973240e+01
2.070000000000000000e+02,1.001334930229011100e+01
2.080000000000000000e+02,1.002301210912181872e+01
2.090000000000000000e+02,1.003245011754479066e+01
2.100000000000000000e+02,1.004167618589309541e+01
2.110000000000000000e+02,1.005070548608570391e+01
2.120000000000000000e+02,1.005954970428287076e+01
2.130000000000000000e+02,1.006822804678082584e+01
2.140000000000000000e+02,1.007675242400181936e+01
2.150000000000000000e+02,1.008513591849320790e+01
2.160000000000000000e+02,1.009338462041526796e+01
2.170000000000000000e+02,1.010150112861179572e+01
2.180000000000000000e+02,1.010949133742188799e+01
2.190000000000000000e+02,1.011737539022617227e+01
2.200000000000000000e+02,1.012518037770765567e+01
2.210000000000000000e+02,1.013293219367619002e+01
2.220000000000000000e+02,1.014065133543257069e+01
2.230000000000000000e+02,1.014835499243612560e+01
2.240000000000000000e+02,1.015605514272942322e+01
2.250000000000000000e+02,1.016448933099377783e+01
2.260000000000000000e+02,1.017264224844769060e+01
2.270000000000000000e+02,1.018071503169484515e+01
2.280000000000000000e+02,1.018875214171724686e+01
2.290000000000000000e+02,1.019675992927999175e+01
2.300000000000000000e+02,1.020477089645388347e+01
2.310000000000000000e+02,1.021280993413091309e+01
2.320000000000000000e+02,1.022090827549604342e+01
2.330000000000000000e+02,1.022907983728220849e+01
2.340000000000000000e+02,1.023732693952175055e+01
2.350000000000000000e+02,1.024563437571494617e+01
2.360000000000000000e+02,1.025398124544057588e+01
2.370000000000000000e+02,1.026238412926440624e+01
2.380000000000000000e+02,1.027089178889062104e+01
2.390000000000000000e+02,1.027954734053908936e+01
2.400000000000000000e+02,1.028837203385249488e+01
2.410000000000000000e+02,1.029737856609588853e+01
2.420000000000000000e+02,1.030657555874724451e+01
2.430000000000000000e+02,1.031596901970341662e+01
2.440000000000000000e+02,1.032556390121217937e+01
2.450000000000000000e+02,1.033536739496215517e+01
2.460000000000000000e+02,1.034539262699490259e+01
2.470000000000000000e+02,1.035564898989974481e+01
2.480000000000000000e+02,1.036613443992528616e+01
2.490000000000000000e+02,1.037683289269202014e+01
2.500000000000000000e+02,1.038769375917618376e+01
2.510000000000000000e+02,1.039869553915894684e+01
2.520000000000000000e+02,1.040989824129911412e+01
2.530000000000000000e+02,1.042138634348616044e+01
2.540000000000000000e+02,1.043320837238893617e+01
2.550000000000000000e+02,1.044537716196477461e+01
2.560000000000000000e+02,1.045790803018228843e+01
2.570000000000000000e+02,1.047081436146729594e+01
2.580000000000000000e+02,1.048410655454052787e+01
2.590000000000000000e+02,1.049780469107637160e+01
2.600000000000000000e+02,1.051194803735394601e+01
2.610000000000000000e+02,1.052652788969784936e+01
2.620000000000000000e+02,1.054157871121314471e+01
2.630000000000000000e+02,1.055712740504447744e+01
2.640000000000000000e+02,1.057322575115700580e+01
2.650000000000000000e+02,1.058988631397693325e+01
2.660000000000000000e+02,1.060707792257813686e+01
2.670000000000000000e+02,1.062478010042643284e+01
2.680000000000000000e+02,1.064307292467204924e+01
2.690000000000000000e+02,1.066201623040099555e+01
2.700000000000000000e+02,1.068166260429033265e+01
2.710000000000000000e+02,1.070208616061815654e+01
2.720000000000000000e+02,1.072334203016837684e+01
2.730000000000000000e+02,1.074555087809422993e+01
2.740000000000000000e+02,1.077279442342401339e+01
2.750000000000000000e+02,1.079808491072775212e+01
2.760000000000000000e+02,1.082339938063072360e+01
2.770000000000000000e+02,1.084995070553418728e+01
2.780000000000000000e+02,1.087764820298066937e+01
2.790000000000000000e+02,1.090654261177862594e+01
2.800000000000000000e+02,1.093662412468358802e+01
2.810000000000000000e+02,1.096813615429561750e+01
2.820000000000000000e+02,1.100113031087842153e+01
2.830000000000000000e+02,1.103573698232121281e+01
2.840000000000000000e+02,1.107206328327066913e+01
2.850000000000000000e+02,1.111017236040971312e+01
2.860000000000000000e+02,1.115012610180631469e+01
2.870000000000000000e+02,1.119188643543406592e+01
2.880000000000000000e+02,1.123560076086806880e+01
2.890000000000000000e+02,1.128109520861013237e+01
2.900000000000000000e+02,1.132812262547202486e+01
2.910000000000000000e+02,1.137670349560253946e+01
2.920000000000000000e+02,1.142687172960883224e+01
2.930000000000000000e+02,1.147836993991071708e+01
2.940000000000000000e+02,1.153110468337313144e+01
2.950000000000000000e+02,1.158472867803885187e+01
2.960000000000000000e+02,1.163938442419401476e+01
2.970000000000000000e+02,1.169424787919845521e+01
2.980000000000000000e+02,1.174911150889452571e+01
2.990000000000000000e+02,1.180378583525213010e+01
3.000000000000000000e+02,1.185774875804404083e+01
3.010000000000000000e+02,1.191040178802101579e+01
3.020000000000000000e+02,1.196181791391542149e+01
3.030000000000000000e+02,1.201204742267370662e+01
3.040000000000000000e+02,1.206081071575006725e+01
3.050000000000000000e+02,1.210843150340345709e+01
3.060000000000000000e+02,1.215448179621983371e+01
3.070000000000000000e+02,1.219898707953746886e+01
3.080000000000000000e+02,1.224206452303437231e+01
3.090000000000000000e+02,1.228349810793489283e+01
3.100000000000000000e+02,1.232304092764364079e+01
3.110000000000000000e+02,1.236107573886876132e+01
3.120000000000000000e+02,1.239782191385598509e+01
3.130000000000000000e+02,1.243324885715926875e+01
3.140000000000000000e+02,1.246768174002593810e+01
3.150000000000000000e+02,1.250080044316759320e+01
3.160000000000000000e+02,1.253267787688839263e+01
3.170000000000000000e+02,1.256353047466218165e+01
3.180000000000000000e+02,1.259311814647073291e+01
3.190000000000000000e+02,1.262118882703398270e+01
3.200000000000000000e+02,1.264825857715532642e+01
3.210000000000000000e+02,1.267451956211463404e+01
3.220000000000000000e+02,1.269998918136528232e+01
3.230000000000000000e+02,1.272429670590336492e+01
3.240000000000000000e+02,1.274656526786942656e+01
3.250000000000000000e+02,1.276726523360497900e+01
3.260000000000000000e+02,1.278745446181970991e+01
3.270000000000000000e+02,1.280737104170688845e+01
3.280000000000000000e+02,1.282681243288591943e+01
3.290000000000000000e+02,1.284600935756336071e+01
3.300000000000000000e+02,1.286496299464389637e+01
3.310000000000000000e+02,1.288320880863654239e+01
3.320000000000000000e+02,1.290061500059569966e+01
3.330000000000000000e+02,1.291764800738752328e+01
3.340000000000000000e+02,1.293396322360463557e+01
3.350000000000000000e+02,1.294939372742140904e+01
3.360000000000000000e+02,1.296461496648636746e+01
3.370000000000000000e+02,1.297942060821491594e+01
3.380000000000000000e+02,1.299357938022530945e+01
3.390000000000000000e+02,1.300681205502059434e+01
3.400000000000000000e+02,1.301984377307956642e+01
3.410000000000000000e+02,1.303218147147543426e+01
3.420000000000000000e+02,1.304401420414865598e+01
3.430000000000000000e+02,1.305551158527893207e+01
3.440000000000000000e+02,1.306738287993976755e+01
3.450000000000000000e+02,1.307954385544424802e+01
3.460000000000000000e+02,1.309015462702982724e+01
3.470000000000000000e+02,1.309895834439998907e+01
3.480000000000000000e+02,1.310621851835442264e+01
3.490000000000000000e+02,1.311469245227884173e+01
3.500000000000000000e+02,1.312316829640965743e+01
3.510000000000000000e+02,1.313156824009774759e+01
3.520000000000000000e+02,1.314015555595164031e+01
3.530000000000000000e+02,1.314710951056346744e+01
3.540000000000000000e+02,1.315535378522793231e+01
3.550000000000000000e+02,1.316187924102860940e+01
3.560000000000000000e+02,1.317001932941947651e+01
3.570000000000000000e+02,1.317733639737861573e+01
3.580000000000000000e+02,1.318425853649857871e+01
3.590000000000000000e+02,1.319189938793299000e+01
3.600000000000000000e+02,1.319665888429053879e+01
3.610000000000000000e+02,1.320446076202502894e+01
3.620000000000000000e+02,1.320858798670772671e+01
3.630000000000000000e+02,1.321505361508166843e+01
3.640000000000000000e+02,1.322237483881865394e+01
3.650000000000000000e+02,1.322566585258825178e+01
3.660000000000000000e+02,1.323111052839477786e+01
3.670000000000000000e+02,1.323187324520949382e+01
3.680000000000000000e+02,1.323864070297004858e+01
3.690000000000000000e+02,1.323865332659572402e+01
3.700000000000000000e+02,1.324490066974938784e+01
3.710000000000000000e+02,1.325247863881141797e+01
3.720000000000000000e+02,1.325321817170648941e+01
3.730000000000000000e+02,1.325926729890169753e+01
3.740000000000000000e+02,1.325645852002207015e+01
3.750000000000000000e+02,1.326564185749029257e+01
3.760000000000000000e+02,1.326744590366218368e+01
3.770000000000000000e+02,1.326791712026225767e+01
3.780000000000000000e+02,1.327520939477017237e+01
3.790000000000000000e+02,1.327198750106097336e+01
3.800000000000000000e+02,1.328237257409296035e+01
3.810000000000000000e+02,1.327612797877360862e+01
3.820000000000000000e+02,1.329167539841891532e+01
3.830000000000000000e+02,1.329256951413891663e+01
3.840000000000000000e+02,1.329079295820976903e+01
3.850000000000000000e+02,1.330156215316298152e+01
3.860000000000000000e+02,1.329339965202891882e+01
3.870000000000000000e+02,1.331001068190762027e+01
3.880000000000000000e+02,1.329624581845036246e+01
3.890000000000000000e+02,1.330634039395253509e+01
3.900000000000000000e+02,1.331885692109846708e+01
3.910000000000000000e+02,1.330923706925875827e+01
3.920000000000000000e+02,1.332418345211031507e+01
3.930000000000000000e+02,1.330673627172869899e+01
3.940000000000000000e+02,1.333213063120842001e+01
3.950000000000000000e+02,1.332737363692838706e+01
3.960000000000000000e+02,1.331806909046048482e+01
3.970000000000000000e+02,1.333396657309556765e+01
3.980000000000000000e+02,1.331562832243922578e+01
3.990000000000000000e+02,1.334233920987940714e+01
4.000000000000000000e+02,1.331295417388338187e+01
4.010000000000000000e+02,1.332756673666885661e+01
4.020000000000000000e+02,1.334506785271991269e+01
4.030000000000000000e+02,1.332567108545837087e+01
4.040000000000000000e+02,1.335079756523325933e+01
4.050000000000000000e+02,1.331873853467481617e+01
4.060000000000000000e+02,1.336161880324985773e+01
4.070000000000000000e+02,1.335013415672202974e+01
4.080000000000000000e+02,1.333131980060343835e+01
4.090000000000000000e+02,1.335673023842304197e+01
4.100000000000000000e+02,1.332452710619302927e+01
4.110000000000000000e+02,1.336769739577407456e+01
4.120000000000000000e+02,1.331640119269168565e+01
4.130000000000000000e+02,1.333902723267643431e+01
4.140000000000000000e+02,1.336476879546026275e+01
4.150000000000000000e+02,1.333245260456673265e+01
4.160000000000000000e+02,1.337299223349512722e+01
4.170000000000000000e+02,1.332069329088939114e+01
4.180000000000000000e+02,1.338950136063159135e+01
4.190000000000000000e+02,1.330702476901745612e+01
4.200000000000000000e+02,1.334490536457110288e+01
4.210000000000000000e+02,1.338529078698761943e+01
4.220000000000000000e+02,1.333414940867384679e+01
4.230000000000000000e+02,1.339954431144219527e+01
4.240000000000000000e+02,1.331694433337781192e+01
4.250000000000000000e+02,1.335079277101166895e+01
4.260000000000000000e+02,1.338781457528084928e+01
4.270000000000000000e+02,1.333769794084928328e+01
4.280000000000000000e+02,1.339993789583632200e+01
4.290000000000000000e+02,1.331956455614445467e+01
4.300000000000000000e+02,1.342516002314925849e+01
4.310000000000000000e+02,1.339245178853506779e+01
4.320000000000000000e+02,1.334260933638212165e+01
4.330000000000000000e+02,1.340284241656087438e+01
4.340000000000000000e+02,1.332525141186638784e+01
4.350000000000000000e+02,1.342616561373749029e+01
4.360000000000000000e+02,1.330307548751878244e+01
4.370000000000000000e+02,1.335522700544767005e+01
4.380000000000000000e+02,1.340812744506084719e+01
4.390000000000000000e+02,1.333590159752175275e+01
4.400000000000000000e+02,1.342760145599579857e+01
4.410000000000000000e+02,1.331059180694000155e+01
4.420000000000000000e+02,1.346607015542251951e+01
4.430000000000000000e+02,1.341788656837337257e+01
4.440000000000000000e+02,1.334346928898938778e+01
4.450000000000000000e+02,1.343209011029489552e+01
4.460000000000000000e+02,1.331925324293978186e+01
4.470000000000000000e+02,1.346625768416977387e+01
4.480000000000000000e+02,1.328792178153091363e+01
4.490000000000000000e+02,1.336452918786405064e+01
4.500000000000000000e+02,1.343736486845443423e+01
4.510000000000000000e+02,1.333563607015682528e+01
4.520000000000000000e+02,1.346680022932320675e+01
4.530000000000000000e+02,1.330062484574577475e+01
4.540000000000000000e+02,1.352442053173647274e+01
4.550000000000000000e+02,1.345598342073219023e+01
4.560000000000000000e+02,1.334653282811485475e+01
4.570000000000000000e+02,1.347516331931574030e+01
4.580000000000000000e+02,1.331337700068830188e+01
4.590000000000000000e+02,1.352523646785872913e+01
4.600000000000000000e+02,1.327076531961185069e+01
4.610000000000000000e+02,1.338296787790015507e+01
4.620000000000000000e+02,1.348121700702808035e+01
4.630000000000000000e+02,1.334001539402913927e+01
4.640000000000000000e+02,1.352567428099413149e+01
4.650000000000000000e+02,1.329188934783731391e+01
4.660000000000000000e+02,1.338881905719006937e+01
4.670000000000000000e+02,1.348049635272601243e+01
4.680000000000000000e+02,1.334764176294345539e+01
4.690000000000000000e+02,1.351885270778001313e+01
4.700000000000000000e+02,1.330004404056164802e+01
4.710000000000000000e+02,1.338770054030617018e+01
4.720000000000000000e+02,1.347238006543575572e+01
4.730000000000000000e+02,1.334938883539190968e+01
4.740000000000000000e+02,1.350597183605877660e+01
4.750000000000000000e+02,1.330382918163114070e+01
4.760000000000000000e+02,1.357227357683317948e+01
4.770000000000000000e+02,1.348435341637569707e+01
4.780000000000000000e+02,1.335042597001364761e+01
4.790000000000000000e+02,1.350551240011862042e+01
4.800000000000000000e+02,1.330960779603214306e+01
4.810000000000000000e+02,1.356238422259544585e+01
4.820000000000000000e+02,1.347512354269540680e+01
4.830000000000000000e+02,1.335525187943229497e+01
4.840000000000000000e+02,1.349437311465483269e+01
4.850000000000000000e+02,1.331650311746143167e+01
4.860000000000000000e+02,1.354398010255082951e+01
4.870000000000000000e+02,1.326355259737925962e+01
4.880000000000000000e+02,1.337989308168558544e+01
4.890000000000000000e+02,1.348302397232164118e+01
4.900000000000000000e+02,1.333376365067756097e+01
4.910000000000000000e+02,1.352804995647082364e+01
4.920000000000000000e+02,1.327991587778521954e+01
4.930000000000000000e+02,1.337858746432255508e+01
4.940000000000000000e+02,1.347366911724224892e+01
4.950000000000000000e+02,1.333674122367393622e+01
4.960000000000000000e+02,1.351223902962023260e+01
4.970000000000000000e+02,1.328657256220682292e+01
4.980000000000000000e+02,1.358621047537190130e+01
4.990000000000000000e+02,1.348652054096353936e+01
5.000000000000000000e+02,1.333715734472950309e+01
5.010000000000000000e+02,1.351051586643372993e+01
5.020000000000000000e+02,1.329318654616060513e+01
5.030000000000000000e+02,1.357260904029662463e+01
5.040000000000000000e+02,1.347476309263110039e+01
5.050000000000000000e+02,1.334368079181090039e+01
5.060000000000000000e+02,1.349633266176250146e+01
5.070000000000000000e+02,1.330247147844945843e+01
5.080000000000000000e+02,1.354997329878648671e+01
5.090000000000000000e+02,1.324528268004072196e+01
5.100000000000000000e+02,1.337100834750312117e+01
5.110000000000000000e+02,1.348134002844197354e+01
5.120000000000000000e+02,1.332259194169252403e+01
5.130000000000000000e+02,1.353002860122563078e+01
5.140000000000000000e+02,1.326558258780554667e+01
5.150000000000000000e+02,1.337042964683604396e+01
5.160000000000000000e+02,1.347126512592211967e+01
5.170000000000000000e+02,1.332716853646855526e+01
5.180000000000000000e+02,1.351253491061229006e+01
5.190000000000000000e+02,1.327479668798959800e+01
5.200000000000000000e+02,1.359029831383592679e+01
5.210000000000000000e+02,1.348443125103880291e+01
5.220000000000000000e+02,1.332768417548108353e+01
5.230000000000000000e+02,1.351008329134589125e+01
5.240000000000000000e+02,1.328237177786125933e+01
5.250000000000000000e+02,1.357445382476208628e+01
5.260000000000000000e+02,1.347137620245320022e+01
5.270000000000000000e+02,1.333548059285486609e+01
5.280000000000000000e+02,1.349421143801532708e+01
5.290000000000000000e+02,1.329338547609687993e+01
5.300000000000000000e+02,1.354944364288322944e+01
5.310000000000000000e+02,1.323439592965218381e+01
5.320000000000000000e+02,1.336382827321242139e+01
5.330000000000000000e+02,1.347725548349827562e+01
5.340000000000000000e+02,1.331502465939534652e+01
5.350000000000000000e+02,1.352726244348174056e+01
5.360000000000000000e+02,1.325700491825453575e+01
5.370000000000000000e+02,1.336382466816864145e+01
5.380000000000000000e+02,1.346680610316001570e+01
5.390000000000000000e+02,1.332062441636771766e+01
5.400000000000000000e+02,1.350890022214860231e+01
5.410000000000000000e+02,1.326778279435719021e+01
5.420000000000000000e+02,1.358726516237753046e+01
5.430000000000000000e+02,1.347932032525135426e+01
5.440000000000000000e+02,1.332131418498108921e+01
5.450000000000000000e+02,1.350568003143645512e+01
5.460000000000000000e+02,1.327594805790491250e+01
5.470000000000000000e+02,1.357007788023648587e+01
5.480000000000000000e+02,1.346565447497691892e+01
5.490000000000000000e+02,1.332970634224612283e+01
5.500000000000000000e+02,1.348889664485062667e+01
5.510000000000000000e+02,1.328785216907476219e+01
5.520000000000000000e+02,1.354381967191208958e+01
5.530000000000000000e+02,1.322875515959603021e+01
5.540000000000000000e+02,1.335757361216074202e+01
5.550000000000000000e+02,1.347099626411079498e+01
5.560000000000000000e+02,1.330973037583182261e+01
5.570000000000000000e+02,1.352055306331320139e+01
5.580000000000000000e+02,1.325222028937523433e+01
5.590000000000000000e+02,1.335791397587783180e+01
5.600000000000000000e+02,1.346028557236484424e+01
5.610000000000000000e+02,1.331582380958789535e+01
5.620000000000000000e+02,1.350178852573405308e+01
5.630000000000000000e+02,1.326381336670630517e+01
5.640000000000000000e+02,1.357839681154755063e+01
5.650000000000000000e+02,1.347143328811110230e+01
5.660000000000000000e+02,1.331672234284817158e+01
5.670000000000000000e+02,1.349763359161620713e+01
5.680000000000000000e+02,1.327232376252121604e+01
5.690000000000000000e+02,1.356023898856150112e+01
5.700000000000000000e+02,1.345756047394818822e+01
5.710000000000000000e+02,1.332513834730690760e+01
5.720000000000000000e+02,1.348056514929487726e+01
5.730000000000000000e+02,1.328440205752568737e+01
5.740000000000000000e+02,1.353381575469055598e+01
5.750000000000000000e+02,1.322652113820181796e+01
5.760000000000000000e+02,1.335148579583993644e+01
5.770000000000000000e+02,1.346247821395188637e+01
5.780000000000000000e+02,1.330562368154069830e+01
5.790000000000000000e+02,1.351028409428663224e+01
5.800000000000000000e+02,1.324981961081660486e+01
5.810000000000000000e+02,1.335198596625440004e+01
5.820000000000000000e+02,1.345163743625789188e+01
5.830000000000000000e+02,1.331183938596740646e+01
5.840000000000000000e+02,1.349153379235617400e+01
5.850000000000000000e+02,1.326171341334653953e+01
5.860000000000000000e+02,1.356458826351669877e+01
5.870000000000000000e+02,1.346088532195654075e+01
5.880000000000000000e+02,1.331301137133255885e+01
5.890000000000000000e+02,1.348641724388572527e+01
5.900000000000000000e+02,1.327035958190173837e+01
5.910000000000000000e+02,1.354592417640531288e+01
5.920000000000000000e+02,1.344719309200963409e+01
5.930000000000000000e+02,1.332109511070552266e+01
5.940000000000000000e+02,1.346947003774113227e+01
5.950000000000000000e+02,1.328219275601004945e+01
5.960000000000000000e+02,1.351988661333662378e+01
5.970000000000000000e+02,1.322662204403592234e+01
5.980000000000000000e+02,1.334510314998637881e+01