# Time [s], Temperature [C]
1.000000000000000000e+00,2.500000000000000000e+01
2.000000000000000000e+00,2.500000000000000000e+01
3.000000000000000000e+00,2.500000000000000000e+01
4.000000000000000000e+00,2.500000000000000000e+01
5.000000000000000000e+00,2.500000000000000000e+01
6.000000000000000000e+00,2.500000199999999850e+01
7.000000000000000000e+00,2.500001100000000065e+01
8.000000000000000000e+00,2.500004399999999904e+01
9.000000000000000000e+00,2.500013699999999872e+01
1.000000000000000000e+01,2.500036400000000114e+01
1.100000000000000000e+01,2.500086599999999848e+01
1.200000000000000000e+01,2.500185600000000008e+01
1.300000000000000000e+01,2.500364300000000028e+01
1.400000000000000000e+01,2.500663399999999825e+01
1.500000000000000000e+01,2.501132000000000133e+01
1.600000000000000000e+01,2.501826900000000009e+01
1.700000000000000000e+01,2.502810099999999949e+01
1.800000000000000000e+01,2.504147000000000034e+01
1.900000000000000000e+01,2.505903400000000047e+01
2.000000000000000000e+01,2.508145100000000127e+01
2.100000000000000000e+01,2.510934800000000067e+01
2.200000000000000000e+01,2.514331599999999867e+01
2.300000000000000000e+01,2.518390499999999932e+01
2.400000000000000000e+01,2.523160899999999884e+01
2.500000000000000000e+01,2.528686899999999937e+01
2.600000000000000000e+01,2.535007500000000036e+01
2.700000000000000000e+01,2.542155500000000146e+01
2.800000000000000000e+01,2.550158499999999862e+01
2.900000000000000000e+01,2.559039500000000089e+01
3.000000000000000000e+01,2.568815800000000138e+01
3.100000000000000000e+01,2.579501300000000086e+01
3.200000000000000000e+01,2.591104899999999844e+01
3.300000000000000000e+01,2.603632199999999841e+01
3.400000000000000000e+01,2.617084900000000047e+01
3.500000000000000000e+01,2.631462300000000099e+01
3.600000000000000000e+01,2.646760400000000146e+01
3.700000000000000000e+01,2.662973200000000062e+01
3.800000000000000000e+01,2.680092399999999841e+01
3.900000000000000000e+01,2.698107500000000059e+01
4.000000000000000000e+01,2.717007399999999961e+01
4.100000000000000000e+01,2.736778599999999884e+01
4.200000000000000000e+01,2.757406999999999897e+01
4.300000000000000000e+01,2.778876700000000000e+01
4.400000000000000000e+01,2.801172100000000142e+01
4.500000000000000000e+01,2.824276899999999912e+01
4.600000000000000000e+01,2.848172399999999982e+01
4.700000000000000000e+01,2.872841499999999826e+01
4.800000000000000000e+01,2.898266399999999976e+01
4.900000000000000000e+01,2.924428699999999992e+01
5.000000000000000000e+01,2.951310199999999995e+01
5.100000000000000000e+01,2.978891799999999890e+01
5.200000000000000000e+01,3.007155200000000050e+01
5.300000000000000000e+01,3.036082299999999989e+01
5.400000000000000000e+01,3.065654599999999874e+01
5.500000000000000000e+01,3.095853400000000022e+01
5.600000000000000000e+01,3.126661299999999954e+01
5.700000000000000000e+01,3.158060299999999998e+01
5.800000000000000000e+01,3.190032799999999824e+01
5.900000000000000000e+01,3.222561300000000273e+01
6.000000000000000000e+01,3.255629700000000071e+01
6.100000000000000000e+01,3.289220799999999656e+01
6.200000000000000000e+01,3.323318900000000298e+01
6.300000000000000000e+01,3.357907099999999900e+01
6.400000000000000000e+01,3.392969500000000238e+01
6.500000000000000000e+01,3.428491600000000261e+01
6.600000000000000000e+01,3.464457699999999818e+01
6.700000000000000000e+01,3.500853000000000037e+01
6.800000000000000000e+01,3.537663700000000233e+01
6.900000000000000000e+01,3.574875300000000067e+01
7.000000000000000000e+01,3.612474399999999974e+01
7.100000000000000000e+01,3.650447799999999887e+01
7.200000000000000000e+01,3.688782499999999942e+01
7.300000000000000000e+01,3.727465800000000229e+01
7.400000000000000000e+01,3.766485200000000333e+01
7.500000000000000000e+01,3.805829200000000156e+01
7.600000000000000000e+01,3.845486499999999808e+01
7.700000000000000000e+01,3.885444300000000339e+01
7.800000000000000000e+01,3.925692399999999793e+01
7.900000000000000000e+01,3.966219699999999904e+01
8.000000000000000000e+01,4.007016000000000133e+01
8.100000000000000000e+01,4.048070899999999739e+01
8.200000000000000000e+01,4.089374500000000268e+01
8.300000000000000000e+01,4.130917399999999873e+01
8.400000000000000000e+01,4.172690599999999961e+01
8.500000000000000000e+01,4.214684700000000106e+01
8.600000000000000000e+01,4.256890500000000088e+01
8.700000000000000000e+01,4.299300000000000210e+01
8.800000000000000000e+01,4.341904399999999953e+01
8.900000000000000000e+01,4.384697299999999842e+01
9.000000000000000000e+01,4.427668800000000005e+01
9.100000000000000000e+01,4.470812200000000303e+01
9.200000000000000000e+01,4.514120100000000235e+01
9.300000000000000000e+01,4.557585100000000011e+01
9.400000000000000000e+01,4.601200099999999793e+01
9.500000000000000000e+01,4.644958499999999901e+01
9.600000000000000000e+01,4.688853799999999694e+01
9.700000000000000000e+01,4.732879599999999698e+01
9.800000000000000000e+01,4.777029399999999981e+01
9.900000000000000000e+01,4.821297500000000014e+01
1.000000000000000000e+02,4.865679899999999947e+01
1.010000000000000000e+02,4.910168800000000289e+01
1.020000000000000000e+02,4.954759200000000163e+01
1.030000000000000000e+02,4.999445699999999704e+01
1.040000000000000000e+02,5.044222599999999801e+01
1.050000000000000000e+02,5.089085399999999737e+01
1.060000000000000000e+02,5.134029000000000309e+01
1.070000000000000000e+02,5.179049299999999789e+01
1.080000000000000000e+02,5.224142499999999956e+01
1.090000000000000000e+02,5.269304699999999997e+01
1.100000000000000000e+02,5.314529000000000281e+01
1.110000000000000000e+02,5.359811799999999948e+01
1.120000000000000000e+02,5.405149500000000273e+01
1.130000000000000000e+02,5.450537899999999780e+01
1.140000000000000000e+02,5.495973599999999948e+01
1.150000000000000000e+02,5.541453599999999824e+01
1.160000000000000000e+02,5.586975499999999784e+01
1.170000000000000000e+02,5.632533600000000007e+01
1.180000000000000000e+02,5.678123899999999935e+01
1.190000000000000000e+02,5.723744200000000149e+01
1.200000000000000000e+02,5.769390899999999789e+01
1.210000000000000000e+02,5.815061599999999942e+01
1.220000000000000000e+02,5.860753299999999655e+01
1.230000000000000000e+02,5.906465099999999779e+01
1.240000000000000000e+02,5.952191499999999991e+01
1.250000000000000000e+02,5.997929800000000000e+01
1.260000000000000000e+02,6.043677100000000024e+01
1.270000000000000000e+02,6.089432099999999792e+01
1.280000000000000000e+02,6.135191700000000026e+01
1.290000000000000000e+02,6.180954400000000248e+01
1.300000000000000000e+02,6.226719299999999890e+01
1.310000000000000000e+02,6.272481499999999954e+01
1.320000000000000000e+02,6.318238399999999899e+01
1.330000000000000000e+02,6.363988899999999660e+01
1.340000000000000000e+02,6.409730500000000575e+01
1.350000000000000000e+02,6.455462599999999895e+01
1.360000000000000000e+02,6.501182599999999923e+01
1.370000000000000000e+02,6.546890299999999741e+01
1.380000000000000000e+02,6.592581900000000417e+01
1.390000000000000000e+02,6.638254499999999325e+01
1.400000000000000000e+02,6.683908099999999308e+01
1.410000000000000000e+02,6.729539499999999919e+01
1.420000000000000000e+02,6.775149500000000558e+01
1.430000000000000000e+02,6.820735200000000020e+01
1.440000000000000000e+02,6.866297099999999887e+01
1.450000000000000000e+02,6.911832400000000121e+01
1.460000000000000000e+02,6.957338000000000022e+01
1.470000000000000000e+02,7.002813700000000097e+01
1.480000000000000000e+02,7.048257399999999961e+01
1.490000000000000000e+02,7.093669099999999617e+01
1.500000000000000000e+02,7.139047999999999661e+01
1.510000000000000000e+02,7.184392499999999870e+01
1.520000000000000000e+02,7.229703499999999394e+01
1.530000000000000000e+02,7.274976300000000151e+01
1.540000000000000000e+02,7.320210299999999393e+01
1.550000000000000000e+02,7.365404499999999643e+01
1.560000000000000000e+02,7.410559100000000399e+01
1.570000000000000000e+02,7.455671700000000612e+01
1.580000000000000000e+02,7.500742300000000284e+01
1.590000000000000000e+02,7.545772599999999386e+01
1.600000000000000000e+02,7.590758499999999742e+01
1.610000000000000000e+02,7.635699499999999773e+01
1.620000000000000000e+02,7.680594600000000582e+01
1.630000000000000000e+02,7.725443300000000590e+01
1.640000000000000000e+02,7.770244599999999480e+01
1.650000000000000000e+02,7.814997900000000186e+01
1.660000000000000000e+02,7.859702299999999298e+01
1.670000000000000000e+02,7.904357899999999404e+01
1.680000000000000000e+02,7.948965499999999906e+01
1.690000000000000000e+02,7.993521099999999535e+01
1.700000000000000000e+02,8.038025700000000029e+01
1.710000000000000000e+02,8.082477599999999995e+01
1.720000000000000000e+02,8.126877600000000257e+01
1.730000000000000000e+02,8.171223399999999515e+01
1.740000000000000000e+02,8.215515899999999760e+01
1.750000000000000000e+02,8.259754900000000077e+01
1.760000000000000000e+02,8.303938300000000083e+01
1.770000000000000000e+02,8.348068200000000161e+01
1.780000000000000000e+02,8.392142499999999927e+01
1.790000000000000000e+02,8.436160300000000234e+01
1.800000000000000000e+02,8.480121599999999660e+01
1.810000000000000000e+02,8.524025000000000318e+01
1.820000000000000000e+02,8.567871100000000695e+01
1.830000000000000000e+02,8.611659199999999714e+01
1.840000000000000000e+02,8.655389399999999966e+01
1.850000000000000000e+02,8.699060799999999460e+01
1.860000000000000000e+02,8.742672699999999963e+01
1.870000000000000000e+02,8.786227399999999932e+01
1.880000000000000000e+02,8.829721100000000433e+01
1.890000000000000000e+02,8.873154399999999953e+01
1.900000000000000000e+02,8.916527600000000575e+01
1.910000000000000000e+02,8.959840400000000216e+01
1.920000000000000000e+02,9.003092200000000389e+01
1.930000000000000000e+02,9.046282200000000273e+01
1.940000000000000000e+02,9.089411200000000690e+01
1.950000000000000000e+02,9.132477599999999995e+01
1.960000000000000000e+02,9.175482900000000086e+01
1.970000000000000000e+02,9.218425000000000580e+01
1.980000000000000000e+02,9.261305199999999616e+01
1.990000000000000000e+02,9.304122200000000475e+01
2.000000000000000000e+02,9.346877299999999877e+01
2.010000000000000000e+02,9.389568300000000534e+01
2.020000000000000000e+02,9.432196799999999826e+01
2.030000000000000000e+02,9.474761200000000372e+01
2.040000000000000000e+02,9.517261499999999330e+01
2.050000000000000000e+02,9.559698500000000365e+01
2.060000000000000000e+02,9.602070600000000411e+01
2.070000000000000000e+02,9.644378700000000038e+01
2.080000000000000000e+02,9.686621900000000096e+01
2.090000000000000000e+02,9.728800999999999988e+01
2.100000000000000000e+02,9.770915200000000311e+01
2.110000000000000000e+02,9.812965400000000216e+01
2.120000000000000000e+02,9.854949200000000076e+01
2.130000000000000000e+02,9.896868899999999769e+01
2.140000000000000000e+02,9.938723000000000241e+01
2.150000000000000000e+02,9.980512199999999723e+01
2.160000000000000000e+02,1.002223500000000058e+02
2.170000000000000000e+02,1.006389300000000020e+02
2.180000000000000000e+02,1.010548600000000050e+02
2.190000000000000000e+02,1.014701199999999943e+02
2.200000000000000000e+02,1.018847300000000047e+02
2.210000000000000000e+02,1.022986800000000045e+02
2.220000000000000000e+02,1.027119699999999938e+02
2.230000000000000000e+02,1.031246000000000009e+02
2.240000000000000000e+02,1.035365599999999944e+02
2.250000000000000000e+02,1.039478600000000057e+02
2.260000000000000000e+02,1.043585000000000065e+02
2.270000000000000000e+02,1.047684699999999935e+02
2.280000000000000000e+02,1.051777799999999985e+02
2.290000000000000000e+02,1.055864200000000039e+02
2.300000000000000000e+02,1.059943999999999988e+02
2.310000000000000000e+02,1.064017099999999942e+02
2.320000000000000000e+02,1.068083599999999933e+02
2.330000000000000000e+02,1.072143300000000039e+02
2.340000000000000000e+02,1.076196400000000040e+02
2.350000000000000000e+02,1.080242899999999935e+02
2.360000000000000000e+02,1.084282699999999977e+02
2.370000000000000000e+02,1.088315800000000024e+02
2.380000000000000000e+02,1.092342199999999934e+02
2.390000000000000000e+02,1.096361899999999991e+02
2.400000000000000000e+02,1.100374999999999943e+02
2.410000000000000000e+02,1.104381300000000010e+02
2.420000000000000000e+02,1.108380999999999972e+02
2.430000000000000000e+02,1.112373999999999938e+02
2.440000000000000000e+02,1.116360200000000020e+02
2.450000000000000000e+02,1.120339799999999997e+02
2.460000000000000000e+02,1.124312699999999978e+02
2.470000000000000000e+02,1.128278899999999965e+02
2.480000000000000000e+02,1.132238499999999988e+02
2.490000000000000000e+02,1.136191299999999984e+02
2.500000000000000000e+02,1.140137399999999985e+02
2.510000000000000000e+02,1.144076900000000023e+02
2.520000000000000000e+02,1.148009600000000034e+02
2.530000000000000000e+02,1.151935699999999940e+02
2.540000000000000000e+02,1.155855099999999993e+02
2.550000000000000000e+02,1.159767800000000051e+02
2.560000000000000000e+02,1.163673900000000003e+02
2.570000000000000000e+02,1.167573200000000071e+02
2.580000000000000000e+02,1.171465800000000002e+02
2.590000000000000000e+02,1.175351699999999937e+02
2.600000000000000000e+02,1.179230900000000020e+02
2.610000000000000000e+02,1.183103499999999997e+02
2.620000000000000000e+02,1.186969399999999979e+02
2.630000000000000000e+02,1.190828599999999966e+02
2.640000000000000000e+02,1.194681199999999990e+02
2.650000000000000000e+02,1.198527100000000019e+02
2.660000000000000000e+02,1.202366300000000052e+02
2.670000000000000000e+02,1.206198899999999981e+02
2.680000000000000000e+02,1.210024800000000056e+02
2.690000000000000000e+02,1.213844100000000026e+02
2.700000000000000000e+02,1.217656599999999969e+02
2.710000000000000000e+02,1.221462599999999981e+02
2.720000000000000000e+02,1.225261899999999997e+02
2.730000000000000000e+02,1.229054600000000050e+02
2.740000000000000000e+02,1.232840599999999966e+02
2.750000000000000000e+02,1.236620000000000061e+02
2.760000000000000000e+02,1.240392800000000051e+02
2.770000000000000000e+02,1.244158900000000045e+02
2.780000000000000000e+02,1.247918499999999966e+02
2.790000000000000000e+02,1.251671400000000034e+02
2.800000000000000000e+02,1.255417699999999996e+02
2.810000000000000000e+02,1.259157299999999964e+02
2.820000000000000000e+02,1.262890400000000000e+02
2.830000000000000000e+02,1.266616800000000040e+02
2.840000000000000000e+02,1.270336599999999976e+02
2.850000000000000000e+02,1.274049799999999948e+02
2.860000000000000000e+02,1.277756600000000020e+02
2.870000000000000000e+02,1.281456599999999924e+02
2.880000000000000000e+02,1.285150099999999895e+02
2.890000000000000000e+02,1.288837100000000078e+02
2.900000000000000000e+02,1.292517499999999870e+02
2.910000000000000000e+02,1.296191399999999874e+02
2.920000000000000000e+02,1.299858700000000056e+02
2.930000000000000000e+02,1.303519400000000132e+02
2.940000000000000000e+02,1.307173500000000104e+02
2.950000000000000000e+02,1.310821100000000001e+02
2.960000000000000000e+02,1.314462100000000078e+02
2.970000000000000000e+02,1.318096600000000080e+02
2.980000000000000000e+02,1.321724700000000041e+02
2.990000000000000000e+02,1.325346099999999865e+02
3.000000000000000000e+02,1.328961199999999963e+02
3.010000000000000000e+02,1.332569599999999923e+02
3.020000000000000000e+02,1.336171600000000126e+02
3.030000000000000000e+02,1.339766999999999939e+02
3.040000000000000000e+02,1.343355999999999995e+02
3.050000000000000000e+02,1.346938499999999976e+02
3.060000000000000000e+02,1.350514499999999884e+02
3.070000000000000000e+02,1.354084000000000003e+02
3.080000000000000000e+02,1.357647100000000080e+02
3.090000000000000000e+02,1.361203600000000051e+02
3.100000000000000000e+02,1.364753699999999981e+02
3.110000000000000000e+02,1.368297399999999868e+02
3.120000000000000000e+02,1.371834599999999966e+02
3.130000000000000000e+02,1.375365400000000022e+02
3.140000000000000000e+02,1.378889800000000037e+02
3.150000000000000000e+02,1.382407800000000009e+02
3.160000000000000000e+02,1.385919199999999876e+02
3.170000000000000000e+02,1.389424300000000017e+02
3.180000000000000000e+02,1.392923000000000116e+02
3.190000000000000000e+02,1.396415299999999888e+02
3.200000000000000000e+02,1.399901099999999872e+02
3.210000000000000000e+02,1.403380600000000129e+02
3.220000000000000000e+02,1.406853800000000092e+02
3.230000000000000000e+02,1.410320399999999950e+02
3.240000000000000000e+02,1.413780800000000113e+02
3.250000000000000000e+02,1.417234799999999950e+02
3.260000000000000000e+02,1.420682400000000030e+02
3.270000000000000000e+02,1.424123700000000099e+02
3.280000000000000000e+02,1.427558600000000126e+02
3.290000000000000000e+02,1.430987199999999859e+02
3.300000000000000000e+02,1.434409599999999898e+02
3.310000000000000000e+02,1.437825499999999863e+02
3.320000000000000000e+02,1.441235000000000070e+02
3.330000000000000000e+02,1.444638400000000047e+02
3.340000000000000000e+02,1.448035399999999981e+02
3.350000000000000000e+02,1.451426099999999906e+02
3.360000000000000000e+02,1.454810600000000136e+02
3.370000000000000000e+02,1.458188600000000008e+02
3.380000000000000000e+02,1.461560499999999934e+02
3.390000000000000000e+02,1.464926000000000101e+02
3.400000000000000000e+02,1.468285400000000038e+02
3.410000000000000000e+02,1.471638499999999965e+02
3.420000000000000000e+02,1.474985399999999913e+02
3.430000000000000000e+02,1.478325800000000072e+02
3.440000000000000000e+02,1.481660200000000032e+02
3.450000000000000000e+02,1.484988299999999981e+02
3.460000000000000000e+02,1.488310099999999920e+02
3.470000000000000000e+02,1.491625799999999913e+02
3.480000000000000000e+02,1.494935199999999895e+02
3.490000000000000000e+02,1.498238399999999899e+02
3.500000000000000000e+02,1.501535499999999956e+02
3.510000000000000000e+02,1.504826400000000035e+02
3.520000000000000000e+02,1.508111000000000104e+02
3.530000000000000000e+02,1.511389499999999941e+02
3.540000000000000000e+02,1.514661900000000117e+02
3.550000000000000000e+02,1.517927999999999997e+02
3.560000000000000000e+02,1.521187999999999931e+02
3.570000000000000000e+02,1.524441799999999887e+02
3.580000000000000000e+02,1.527689699999999959e+02
3.590000000000000000e+02,1.530931199999999990e+02
3.600000000000000000e+02,1.534166700000000105e+02
3.610000000000000000e+02,1.537396099999999990e+02
3.620000000000000000e+02,1.540619399999999928e+02
3.630000000000000000e+02,1.543836499999999887e+02
3.640000000000000000e+02,1.547047599999999932e+02
3.650000000000000000e+02,1.550252399999999966e+02
3.660000000000000000e+02,1.553451200000000085e+02
3.670000000000000000e+02,1.556644100000000037e+02
3.680000000000000000e+02,1.559830900000000042e+02
3.690000000000000000e+02,1.563011500000000069e+02
3.700000000000000000e+02,1.566186099999999897e+02
3.710000000000000000e+02,1.569354700000000093e+02
3.720000000000000000e+02,1.572517200000000059e+02
3.730000000000000000e+02,1.575673800000000142e+02
3.740000000000000000e+02,1.578824299999999994e+02
3.750000000000000000e+02,1.581968699999999899e+02
3.760000000000000000e+02,1.585107099999999889e+02
3.770000000000000000e+02,1.588239599999999996e+02
3.780000000000000000e+02,1.591366099999999904e+02
3.790000000000000000e+02,1.594486499999999864e+02
3.800000000000000000e+02,1.597600999999999942e+02
3.810000000000000000e+02,1.600709500000000105e+02
3.820000000000000000e+02,1.603812100000000100e+02
3.830000000000000000e+02,1.606908899999999960e+02
3.840000000000000000e+02,1.609999400000000094e+02
3.850000000000000000e+02,1.613084100000000092e+02
3.860000000000000000e+02,1.616162999999999954e+02
3.870000000000000000e+02,1.619235799999999870e+02
3.880000000000000000e+02,1.622302699999999902e+02
3.890000000000000000e+02,1.625363800000000083e+02
3.900000000000000000e+02,1.628418900000000065e+02
3.910000000000000000e+02,1.631468199999999911e+02
3.920000000000000000e+02,1.634511400000000094e+02
3.930000000000000000e+02,1.637548999999999921e+02
3.940000000000000000e+02,1.640580400000000054e+02
3.950000000000000000e+02,1.643606100000000083e+02
3.960000000000000000e+02,1.646625999999999976e+02
3.970000000000000000e+02,1.649639999999999986e+02
3.980000000000000000e+02,1.652648199999999861e+02
3.990000000000000000e+02,1.655650500000000136e+02
4.000000000000000000e+02,1.658646999999999991e+02
4.010000000000000000e+02,1.661637599999999964e+02
4.020000000000000000e+02,1.664622500000000116e+02
4.030000000000000000e+02,1.667601500000000101e+02
4.040000000000000000e+02,1.670574799999999982e+02
4.050000000000000000e+02,1.673542300000000012e+02
4.060000000000000000e+02,1.676503899999999874e+02
4.070000000000000000e+02,1.679459799999999916e+02
4.080000000000000000e+02,1.682410000000000139e+02
4.090000000000000000e+02,1.685354299999999910e+02
4.100000000000000000e+02,1.688292999999999893e+02
4.110000000000000000e+02,1.691225699999999961e+02
4.120000000000000000e+02,1.694152799999999957e+02
4.130000000000000000e+02,1.697074299999999880e+02
4.140000000000000000e+02,1.699989899999999921e+02
4.150000000000000000e+02,1.702899899999999889e+02
4.160000000000000000e+02,1.705804100000000005e+02
4.170000000000000000e+02,1.708702700000000050e+02
4.180000000000000000e+02,1.711595599999999990e+02
4.190000000000000000e+02,1.714482700000000079e+02
4.200000000000000000e+02,1.717364200000000096e+02
4.210000000000000000e+02,1.720240000000000009e+02
4.220000000000000000e+02,1.723110200000000134e+02
4.230000000000000000e+02,1.725974699999999871e+02
4.240000000000000000e+02,1.728833600000000104e+02
4.250000000000000000e+02,1.731686899999999980e+02
4.260000000000000000e+02,1.734534500000000037e+02
4.270000000000000000e+02,1.737376399999999990e+02
4.280000000000000000e+02,1.740212899999999934e+02
4.290000000000000000e+02,1.743043499999999995e+02
4.300000000000000000e+02,1.745868700000000047e+02
4.310000000000000000e+02,1.748688199999999995e+02
4.320000000000000000e+02,1.751502199999999903e+02
4.330000000000000000e+02,1.754310800000000086e+02
4.340000000000000000e+02,1.757113500000000101e+02
4.350000000000000000e+02,1.759910700000000077e+02
4.360000000000000000e+02,1.762702500000000043e+02
4.370000000000000000e+02,1.765488699999999938e+02
4.380000000000000000e+02,1.768269300000000044e+02
4.390000000000000000e+02,1.771044500000000141e+02
4.400000000000000000e+02,1.773814099999999883e+02
4.410000000000000000e+02,1.776578100000000120e+02
4.420000000000000000e+02,1.779336700000000064e+02
4.430000000000000000e+02,1.782089699999999937e+02
4.440000000000000000e+02,1.784837300000000084e+02
4.450000000000000000e+02,1.787579499999999939e+02
4.460000000000000000e+02,1.790316200000000038e+02
4.470000000000000000e+02,1.793047200000000032e+02
4.480000000000000000e+02,1.795772900000000050e+02
4.490000000000000000e+02,1.798493200000000058e+02
4.500000000000000000e+02,1.801207899999999995e+02
4.510000000000000000e+02,1.803917199999999923e+02
4.520000000000000000e+02,1.806621199999999874e+02
4.530000000000000000e+02,1.809319800000000100e+02
4.540000000000000000e+02,1.812012799999999970e+02
4.550000000000000000e+02,1.814700499999999863e+02
4.560000000000000000e+02,1.817382800000000032e+02
4.570000000000000000e+02,1.820059699999999907e+02
4.580000000000000000e+02,1.822731200000000058e+02
4.590000000000000000e+02,1.825397299999999916e+02
4.600000000000000000e+02,1.828058200000000113e+02
4.610000000000000000e+02,1.830713499999999954e+02
4.620000000000000000e+02,1.833363600000000133e+02
4.630000000000000000e+02,1.836008300000000020e+02
4.640000000000000000e+02,1.838647799999999961e+02
4.650000000000000000e+02,1.841281700000000114e+02
4.660000000000000000e+02,1.843910500000000070e+02
4.670000000000000000e+02,1.846534000000000049e+02
4.680000000000000000e+02,1.849152100000000019e+02
4.690000000000000000e+02,1.851764799999999980e+02
4.700000000000000000e+02,1.854372400000000027e+02
4.710000000000000000e+02,1.856974600000000066e+02
4.720000000000000000e+02,1.859571699999999908e+02
4.730000000000000000e+02,1.862163400000000024e+02
4.740000000000000000e+02,1.864749799999999880e+02
4.750000000000000000e+02,1.867331100000000106e+02
4.760000000000000000e+02,1.869907100000000071e+02
4.770000000000000000e+02,1.872477700000000027e+02
4.780000000000000000e+02,1.875043300000000102e+02
4.790000000000000000e+02,1.877603599999999915e+02
4.800000000000000000e+02,1.880158700000000067e+02
4.810000000000000000e+02,1.882708599999999990e+02
4.820000000000000000e+02,1.885253099999999904e+02
4.830000000000000000e+02,1.887792699999999968e+02
4.840000000000000000e+02,1.890327000000000055e+02
4.850000000000000000e+02,1.892856099999999913e+02
4.860000000000000000e+02,1.895380100000000141e+02
4.870000000000000000e+02,1.897898999999999887e+02
4.880000000000000000e+02,1.900412800000000004e+02
4.890000000000000000e+02,1.902921299999999860e+02
4.900000000000000000e+02,1.905424700000000087e+02
4.910000000000000000e+02,1.907922800000000052e+02
4.920000000000000000e+02,1.910416099999999915e+02
4.930000000000000000e+02,1.912904100000000085e+02
4.940000000000000000e+02,1.915387100000000089e+02
4.950000000000000000e+02,1.917864999999999895e+02
4.960000000000000000e+02,1.920337700000000041e+02
4.970000000000000000e+02,1.922805500000000052e+02
4.980000000000000000e+02,1.925268100000000118e+02
4.990000000000000000e+02,1.927725499999999954e+02
5.000000000000000000e+02,1.930178099999999972e+02
5.010000000000000000e+02,1.932625600000000077e+02
5.020000000000000000e+02,1.935068100000000015e+02
5.030000000000000000e+02,1.937505299999999977e+02
5.040000000000000000e+02,1.939937700000000120e+02
5.050000000000000000e+02,1.942365100000000098e+02
5.060000000000000000e+02,1.944787399999999877e+02
5.070000000000000000e+02,1.947204700000000059e+02
5.080000000000000000e+02,1.949617200000000139e+02
5.090000000000000000e+02,1.952024499999999989e+02
5.100000000000000000e+02,1.954426899999999989e+02
5.110000000000000000e+02,1.956824300000000108e+02
5.120000000000000000e+02,1.959216800000000092e+02
5.130000000000000000e+02,1.961604299999999910e+02
5.140000000000000000e+02,1.963986800000000130e+02
5.150000000000000000e+02,1.966364599999999996e+02
5.160000000000000000e+02,1.968737199999999916e+02
5.170000000000000000e+02,1.971105000000000018e+02
5.180000000000000000e+02,1.973467899999999986e+02
5.190000000000000000e+02,1.975825800000000072e+02
5.200000000000000000e+02,1.978178900000000056e+02
5.210000000000000000e+02,1.980526999999999873e+02
5.220000000000000000e+02,1.982870299999999872e+02
5.230000000000000000e+02,1.985208599999999990e+02
5.240000000000000000e+02,1.987542100000000005e+02
5.250000000000000000e+02,1.989870799999999917e+02
5.260000000000000000e+02,1.992194700000000012e+02
5.270000000000000000e+02,1.994513699999999972e+02
5.280000000000000000e+02,1.996827700000000050e+02
5.290000000000000000e+02,1.999137100000000089e+02
5.300000000000000000e+02,2.001441499999999962e+02
5.310000000000000000e+02,2.003741100000000017e+02
5.320000000000000000e+02,2.006035899999999970e+02
5.330000000000000000e+02,2.008326099999999883e+02
5.340000000000000000e+02,2.010611399999999946e+02
5.350000000000000000e+02,2.012891799999999876e+02
5.360000000000000000e+02,2.015167500000000018e+02
5.370000000000000000e+02,2.017438500000000090e+02
5.380000000000000000e+02,2.019704700000000059e+02
5.390000000000000000e+02,2.021966099999999926e+02
5.400000000000000000e+02,2.024222699999999975e+02
5.410000000000000000e+02,2.026474800000000016e+02
5.420000000000000000e+02,2.028721899999999891e+02
5.430000000000000000e+02,2.030964500000000044e+02
5.440000000000000000e+02,2.033202200000000062e+02
5.450000000000000000e+02,2.035435300000000041e+02
5.460000000000000000e+02,2.037663699999999949e+02
5.470000000000000000e+02,2.039887400000000071e+02
5.480000000000000000e+02,2.042106300000000090e+02
5.490000000000000000e+02,2.044320700000000102e+02
5.500000000000000000e+02,2.046530300000000011e+02
5.510000000000000000e+02,2.048735399999999913e+02
5.520000000000000000e+02,2.050935699999999997e+02
5.530000000000000000e+02,2.053131300000000010e+02
5.540000000000000000e+02,2.055322400000000016e+02
5.550000000000000000e+02,2.057508899999999983e+02
5.560000000000000000e+02,2.059690600000000131e+02
5.570000000000000000e+02,2.061867699999999957e+02
5.580000000000000000e+02,2.064040400000000091e+02
5.590000000000000000e+02,2.066208300000000122e+02
5.600000000000000000e+02,2.068371600000000115e+02
5.610000000000000000e+02,2.070530500000000131e+02
5.620000000000000000e+02,2.072684600000000046e+02
5.630000000000000000e+02,2.074834299999999985e+02
5.640000000000000000e+02,2.076979399999999885e+02
5.650000000000000000e+02,2.079120000000000061e+02
5.660000000000000000e+02,2.081255999999999915e+02
5.670000000000000000e+02,2.083387299999999982e+02
5.680000000000000000e+02,2.085514200000000073e+02
5.690000000000000000e+02,2.087636699999999905e+02
5.700000000000000000e+02,2.089754499999999950e+02
5.710000000000000000e+02,2.091867799999999988e+02
5.720000000000000000e+02,2.093976700000000051e+02
5.730000000000000000e+02,2.096081100000000106e+02
5.740000000000000000e+02,2.098180800000000090e+02
5.750000000000000000e+02,2.100276299999999878e+02
5.760000000000000000e+02,2.102367199999999912e+02
5.770000000000000000e+02,2.104453599999999938e+02
5.780000000000000000e+02,2.106535599999999988e+02
5.790000000000000000e+02,2.108613100000000031e+02
5.800000000000000000e+02,2.110686300000000131e+02
5.810000000000000000e+02,2.112754999999999939e+02
5.820000000000000000e+02,2.114819200000000023e+02
5.830000000000000000e+02,2.116879000000000133e+02
5.840000000000000000e+02,2.118934500000000014e+02
5.850000000000000000e+02,2.120985400000000141e+02
5.860000000000000000e+02,2.123032100000000071e+02
5.870000000000000000e+02,2.125074299999999994e+02
5.880000000000000000e+02,2.127112099999999941e+02
5.890000000000000000e+02,2.129145499999999913e+02
5.900000000000000000e+02,2.131174599999999941e+02
5.910000000000000000e+02,2.133199299999999994e+02
5.920000000000000000e+02,2.135219700000000103e+02
5.930000000000000000e+02,2.137235699999999952e+02
5.940000000000000000e+02,2.139247400000000141e+02
5.950000000000000000e+02,2.141254700000000071e+02
5.960000000000000000e+02,2.143257800000000088e+02
5.970000000000000000e+02,2.145256500000000131e+02
5.980000000000000000e+02,2.147250799999999913e+02
5.990000000000000000e+02,2.149240900000000067e+02