# Time [s], Temperature [C]
1.000000000000000000e+00,2.500000000000000000e+01
2.000000000000000000e+00,2.500000000000000000e+01
3.000000000000000000e+00,2.500000000000000000e+01
4.000000000000000000e+00,2.500000000000000000e+01
5.000000000000000000e+00,2.500000199999999850e+01
6.000000000000000000e+00,2.500000800000000112e+01
7.000000000000000000e+00,2.500002900000000139e+01
8.000000000000000000e+00,2.500009500000000173e+01
9.000000000000000000e+00,2.500027499999999847e+01
1.000000000000000000e+01,2.500068699999999922e+01
1.100000000000000000e+01,2.500153500000000051e+01
1.200000000000000000e+01,2.500311699999999959e+01
1.300000000000000000e+01,2.500583299999999909e+01
1.400000000000000000e+01,2.501017399999999924e+01
1.500000000000000000e+01,2.501671400000000034e+01
1.600000000000000000e+01,2.502609100000000097e+01
1.700000000000000000e+01,2.503897299999999859e+01
1.800000000000000000e+01,2.505604599999999849e+01
1.900000000000000000e+01,2.507798400000000072e+01
2.000000000000000000e+01,2.510544200000000004e+01
2.100000000000000000e+01,2.513903799999999933e+01
2.200000000000000000e+01,2.517934400000000039e+01
2.300000000000000000e+01,2.522687700000000177e+01
2.400000000000000000e+01,2.528209899999999877e+01
2.500000000000000000e+01,2.534541700000000120e+01
2.600000000000000000e+01,2.541717699999999880e+01
2.700000000000000000e+01,2.549766899999999836e+01
2.800000000000000000e+01,2.558713200000000043e+01
2.900000000000000000e+01,2.568575299999999828e+01
3.000000000000000000e+01,2.579367299999999830e+01
3.100000000000000000e+01,2.591099399999999875e+01
3.200000000000000000e+01,2.603777099999999933e+01
3.300000000000000000e+01,2.617402799999999985e+01
3.400000000000000000e+01,2.631975900000000124e+01
3.500000000000000000e+01,2.647492599999999996e+01
3.600000000000000000e+01,2.663947100000000034e+01
3.700000000000000000e+01,2.681330499999999972e+01
3.800000000000000000e+01,2.699632599999999982e+01
3.900000000000000000e+01,2.718841899999999967e+01
4.000000000000000000e+01,2.738944400000000101e+01
4.100000000000000000e+01,2.759925799999999896e+01
4.200000000000000000e+01,2.781770300000000162e+01
4.300000000000000000e+01,2.804461699999999880e+01
4.400000000000000000e+01,2.827982899999999944e+01
4.500000000000000000e+01,2.852315300000000065e+01
4.600000000000000000e+01,2.877441200000000165e+01
4.700000000000000000e+01,2.903342999999999918e+01
4.800000000000000000e+01,2.930000100000000174e+01
4.900000000000000000e+01,2.957394800000000146e+01
5.000000000000000000e+01,2.985508899999999954e+01
5.100000000000000000e+01,3.014321899999999843e+01
5.200000000000000000e+01,3.043815199999999876e+01
5.300000000000000000e+01,3.073970600000000175e+01
5.400000000000000000e+01,3.104769500000000093e+01
5.500000000000000000e+01,3.136192700000000144e+01
5.600000000000000000e+01,3.168222600000000000e+01
5.700000000000000000e+01,3.200841100000000239e+01
5.800000000000000000e+01,3.234030500000000075e+01
5.900000000000000000e+01,3.267773400000000095e+01
6.000000000000000000e+01,3.302051900000000018e+01
6.100000000000000000e+01,3.336850400000000150e+01
6.200000000000000000e+01,3.372151900000000069e+01
6.300000000000000000e+01,3.407941399999999987e+01
6.400000000000000000e+01,3.444202800000000053e+01
6.500000000000000000e+01,3.480920400000000114e+01
6.600000000000000000e+01,3.518079000000000178e+01
6.700000000000000000e+01,3.555663700000000205e+01
6.800000000000000000e+01,3.593659600000000154e+01
6.900000000000000000e+01,3.632054099999999863e+01
7.000000000000000000e+01,3.670832800000000162e+01
7.100000000000000000e+01,3.709982699999999767e+01
7.200000000000000000e+01,3.749490699999999777e+01
7.300000000000000000e+01,3.789344400000000235e+01
7.400000000000000000e+01,3.829531500000000221e+01
7.500000000000000000e+01,3.870039400000000285e+01
7.600000000000000000e+01,3.910856600000000327e+01
7.700000000000000000e+01,3.951973000000000269e+01
7.800000000000000000e+01,3.993376899999999807e+01
7.900000000000000000e+01,4.035057100000000219e+01
8.000000000000000000e+01,4.077003100000000302e+01
8.100000000000000000e+01,4.119205099999999931e+01
8.200000000000000000e+01,4.161653900000000306e+01
8.300000000000000000e+01,4.204339199999999721e+01
8.400000000000000000e+01,4.247252300000000247e+01
8.500000000000000000e+01,4.290383500000000083e+01
8.600000000000000000e+01,4.333724600000000038e+01
8.700000000000000000e+01,4.377266699999999844e+01
8.800000000000000000e+01,4.421001400000000103e+01
8.900000000000000000e+01,4.464922700000000333e+01
9.000000000000000000e+01,4.509020600000000201e+01
9.100000000000000000e+01,4.553288299999999822e+01
9.200000000000000000e+01,4.597717999999999705e+01
9.300000000000000000e+01,4.642302699999999760e+01
9.400000000000000000e+01,4.687035800000000307e+01
9.500000000000000000e+01,4.731909900000000135e+01
9.600000000000000000e+01,4.776918799999999976e+01
9.700000000000000000e+01,4.822055799999999692e+01
9.800000000000000000e+01,4.867318300000000164e+01
9.900000000000000000e+01,4.912696799999999797e+01
1.000000000000000000e+02,4.958186299999999846e+01
1.010000000000000000e+02,5.003780400000000128e+01
1.020000000000000000e+02,5.049474000000000018e+01
1.030000000000000000e+02,5.095261800000000108e+01
1.040000000000000000e+02,5.141139199999999931e+01
1.050000000000000000e+02,5.187104000000000070e+01
1.060000000000000000e+02,5.233148200000000116e+01
1.070000000000000000e+02,5.279265999999999792e+01
1.080000000000000000e+02,5.325454299999999819e+01
1.090000000000000000e+02,5.371707899999999825e+01
1.100000000000000000e+02,5.418023699999999820e+01
1.110000000000000000e+02,5.464398200000000116e+01
1.120000000000000000e+02,5.510828800000000172e+01
1.130000000000000000e+02,5.557307800000000242e+01
1.140000000000000000e+02,5.603832200000000086e+01
1.150000000000000000e+02,5.650399000000000171e+01
1.160000000000000000e+02,5.697004299999999688e+01
1.170000000000000000e+02,5.743646199999999880e+01
1.180000000000000000e+02,5.790323300000000017e+01
1.190000000000000000e+02,5.837027400000000199e+01
1.200000000000000000e+02,5.883756300000000294e+01
1.210000000000000000e+02,5.930507999999999669e+01
1.220000000000000000e+02,5.977279699999999707e+01
1.230000000000000000e+02,6.024069200000000279e+01
1.240000000000000000e+02,6.070875499999999647e+01
1.250000000000000000e+02,6.117692199999999758e+01
1.260000000000000000e+02,6.164516799999999819e+01
1.270000000000000000e+02,6.211347599999999858e+01
1.280000000000000000e+02,6.258182899999999904e+01
1.290000000000000000e+02,6.305020900000000239e+01
1.300000000000000000e+02,6.351860800000000040e+01
1.310000000000000000e+02,6.398695800000000133e+01
1.320000000000000000e+02,6.445525399999999649e+01
1.330000000000000000e+02,6.492346999999999468e+01
1.340000000000000000e+02,6.539160900000000254e+01
1.350000000000000000e+02,6.585965699999999856e+01
1.360000000000000000e+02,6.632757599999999343e+01
1.370000000000000000e+02,6.679533399999999688e+01
1.380000000000000000e+02,6.726292399999999816e+01
1.390000000000000000e+02,6.773033100000000672e+01
1.400000000000000000e+02,6.819754000000000360e+01
1.410000000000000000e+02,6.866455799999999954e+01
1.420000000000000000e+02,6.913134800000000268e+01
1.430000000000000000e+02,6.959787799999999436e+01
1.440000000000000000e+02,7.006413299999999822e+01
1.450000000000000000e+02,7.053012099999999407e+01
1.460000000000000000e+02,7.099581899999999735e+01
1.470000000000000000e+02,7.146123500000000206e+01
1.480000000000000000e+02,7.192634599999999523e+01
1.490000000000000000e+02,7.239110599999999351e+01
1.500000000000000000e+02,7.285553000000000168e+01
1.510000000000000000e+02,7.331959500000000673e+01
1.520000000000000000e+02,7.378329499999999541e+01
1.530000000000000000e+02,7.424663499999999772e+01
1.540000000000000000e+02,7.470960999999999785e+01
1.550000000000000000e+02,7.517217999999999734e+01
1.560000000000000000e+02,7.563433799999999962e+01
1.570000000000000000e+02,7.609607699999999397e+01
1.580000000000000000e+02,7.655738800000000310e+01
1.590000000000000000e+02,7.701826499999999953e+01
1.600000000000000000e+02,7.747872200000000475e+01
1.610000000000000000e+02,7.793872799999999756e+01
1.620000000000000000e+02,7.839826999999999657e+01
1.630000000000000000e+02,7.885734600000000682e+01
1.640000000000000000e+02,7.931594099999999514e+01
1.650000000000000000e+02,7.977404799999999341e+01
1.660000000000000000e+02,8.023165899999999340e+01
1.670000000000000000e+02,8.068880500000000211e+01
1.680000000000000000e+02,8.114544700000000432e+01
1.690000000000000000e+02,8.160156999999999528e+01
1.700000000000000000e+02,8.205717500000000086e+01
1.710000000000000000e+02,8.251225999999999772e+01
1.720000000000000000e+02,8.296680499999999370e+01
1.730000000000000000e+02,8.342081500000000460e+01
1.740000000000000000e+02,8.387431300000000078e+01
1.750000000000000000e+02,8.432726300000000208e+01
1.760000000000000000e+02,8.477965500000000532e+01
1.770000000000000000e+02,8.523149100000000544e+01
1.780000000000000000e+02,8.568276199999999676e+01
1.790000000000000000e+02,8.613346900000000517e+01
1.800000000000000000e+02,8.658359500000000253e+01
1.810000000000000000e+02,8.703315700000000277e+01
1.820000000000000000e+02,8.748216200000000242e+01
1.830000000000000000e+02,8.793058000000000618e+01
1.840000000000000000e+02,8.837840300000000582e+01
1.850000000000000000e+02,8.882563799999999787e+01
1.860000000000000000e+02,8.927227800000000002e+01
1.870000000000000000e+02,8.971832299999999805e+01
1.880000000000000000e+02,9.016375700000000393e+01
1.890000000000000000e+02,9.060858899999999494e+01
1.900000000000000000e+02,9.105282599999999604e+01
1.910000000000000000e+02,9.149645200000000500e+01
1.920000000000000000e+02,9.193946800000000508e+01
1.930000000000000000e+02,9.238186600000000226e+01
1.940000000000000000e+02,9.282363900000000001e+01
1.950000000000000000e+02,9.326479299999999739e+01
1.960000000000000000e+02,9.370532199999999534e+01
1.970000000000000000e+02,9.414522599999999386e+01
1.980000000000000000e+02,9.458449600000000146e+01
1.990000000000000000e+02,9.502313200000000393e+01
2.000000000000000000e+02,9.546115100000000098e+01
2.010000000000000000e+02,9.589852899999999636e+01
2.020000000000000000e+02,9.633527399999999830e+01
2.030000000000000000e+02,9.677137799999999856e+01
2.040000000000000000e+02,9.720683300000000315e+01
2.050000000000000000e+02,9.764164700000000607e+01
2.060000000000000000e+02,9.807581299999999658e+01
2.070000000000000000e+02,9.850933100000000309e+01
2.080000000000000000e+02,9.894219999999999970e+01
2.090000000000000000e+02,9.937442000000000064e+01
2.100000000000000000e+02,9.980598399999999515e+01
2.110000000000000000e+02,1.002369099999999946e+02
2.120000000000000000e+02,1.006671800000000019e+02
2.130000000000000000e+02,1.010967899999999986e+02
2.140000000000000000e+02,1.015257399999999990e+02
2.150000000000000000e+02,1.019540400000000062e+02
2.160000000000000000e+02,1.023816800000000029e+02
2.170000000000000000e+02,1.028086500000000001e+02
2.180000000000000000e+02,1.032349600000000009e+02
2.190000000000000000e+02,1.036606100000000055e+02
2.200000000000000000e+02,1.040855899999999963e+02
2.210000000000000000e+02,1.045099199999999939e+02
2.220000000000000000e+02,1.049335700000000031e+02
2.230000000000000000e+02,1.053565600000000018e+02
2.240000000000000000e+02,1.057788800000000009e+02
2.250000000000000000e+02,1.062005400000000037e+02
2.260000000000000000e+02,1.066215300000000070e+02
2.270000000000000000e+02,1.070418399999999934e+02
2.280000000000000000e+02,1.074614899999999977e+02
2.290000000000000000e+02,1.078804700000000025e+02
2.300000000000000000e+02,1.082987700000000046e+02
2.310000000000000000e+02,1.087163900000000041e+02
2.320000000000000000e+02,1.091333499999999930e+02
2.330000000000000000e+02,1.095496399999999966e+02
2.340000000000000000e+02,1.099652600000000007e+02
2.350000000000000000e+02,1.103801899999999989e+02
2.360000000000000000e+02,1.107944499999999977e+02
2.370000000000000000e+02,1.112080399999999969e+02
2.380000000000000000e+02,1.116209499999999935e+02
2.390000000000000000e+02,1.120331900000000047e+02
2.400000000000000000e+02,1.124447600000000023e+02
2.410000000000000000e+02,1.128556399999999940e+02
2.420000000000000000e+02,1.132658600000000035e+02
2.430000000000000000e+02,1.136754099999999994e+02
2.440000000000000000e+02,1.140842700000000036e+02
2.450000000000000000e+02,1.144924599999999941e+02
2.460000000000000000e+02,1.148999799999999993e+02
2.470000000000000000e+02,1.153068099999999987e+02
2.480000000000000000e+02,1.157129699999999985e+02
2.490000000000000000e+02,1.161184499999999957e+02
2.500000000000000000e+02,1.165232500000000044e+02
2.510000000000000000e+02,1.169273799999999994e+02
2.520000000000000000e+02,1.173308300000000060e+02
2.530000000000000000e+02,1.177336099999999988e+02
2.540000000000000000e+02,1.181356999999999999e+02
2.550000000000000000e+02,1.185371200000000016e+02
2.560000000000000000e+02,1.189378600000000006e+02
2.570000000000000000e+02,1.193379300000000001e+02
2.580000000000000000e+02,1.197373099999999937e+02
2.590000000000000000e+02,1.201360200000000020e+02
2.600000000000000000e+02,1.205340599999999966e+02
2.610000000000000000e+02,1.209314099999999996e+02
2.620000000000000000e+02,1.213280900000000031e+02
2.630000000000000000e+02,1.217241000000000071e+02
2.640000000000000000e+02,1.221194200000000052e+02
2.650000000000000000e+02,1.225140600000000006e+02
2.660000000000000000e+02,1.229080299999999966e+02
2.670000000000000000e+02,1.233013200000000040e+02
2.680000000000000000e+02,1.236939500000000010e+02
2.690000000000000000e+02,1.240858900000000062e+02
2.700000000000000000e+02,1.244771700000000010e+02
2.710000000000000000e+02,1.248677699999999930e+02
2.720000000000000000e+02,1.252576899999999966e+02
2.730000000000000000e+02,1.256469400000000007e+02
2.740000000000000000e+02,1.260355200000000053e+02
2.750000000000000000e+02,1.264234199999999930e+02
2.760000000000000000e+02,1.268106599999999986e+02
2.770000000000000000e+02,1.271972200000000015e+02
2.780000000000000000e+02,1.275831000000000017e+02
2.790000000000000000e+02,1.279683100000000024e+02
2.800000000000000000e+02,1.283528300000000115e+02
2.810000000000000000e+02,1.287366900000000101e+02
2.820000000000000000e+02,1.291198699999999917e+02
2.830000000000000000e+02,1.295023999999999944e+02
2.840000000000000000e+02,1.298842500000000086e+02
2.850000000000000000e+02,1.302654300000000092e+02
2.860000000000000000e+02,1.306459199999999896e+02
2.870000000000000000e+02,1.310257599999999911e+02
2.880000000000000000e+02,1.314049200000000042e+02
2.890000000000000000e+02,1.317834300000000098e+02
2.900000000000000000e+02,1.321612499999999955e+02
2.910000000000000000e+02,1.325384200000000021e+02
2.920000000000000000e+02,1.329149199999999951e+02
2.930000000000000000e+02,1.332907399999999996e+02
2.940000000000000000e+02,1.336658899999999903e+02
2.950000000000000000e+02,1.340403900000000021e+02
2.960000000000000000e+02,1.344142200000000003e+02
2.970000000000000000e+02,1.347873500000000035e+02
2.980000000000000000e+02,1.351598500000000058e+02
2.990000000000000000e+02,1.355316799999999944e+02
3.000000000000000000e+02,1.359028299999999945e+02
3.010000000000000000e+02,1.362733299999999872e+02
3.020000000000000000e+02,1.366431599999999946e+02
3.030000000000000000e+02,1.370123299999999915e+02
3.040000000000000000e+02,1.373808300000000031e+02
3.050000000000000000e+02,1.377486700000000042e+02
3.060000000000000000e+02,1.381158399999999915e+02
3.070000000000000000e+02,1.384823599999999999e+02
3.080000000000000000e+02,1.388482199999999978e+02
3.090000000000000000e+02,1.392134200000000135e+02
3.100000000000000000e+02,1.395779599999999903e+02
3.110000000000000000e+02,1.399418300000000102e+02
3.120000000000000000e+02,1.403050499999999943e+02
3.130000000000000000e+02,1.406675999999999931e+02
3.140000000000000000e+02,1.410295000000000130e+02
3.150000000000000000e+02,1.413907299999999907e+02
3.160000000000000000e+02,1.417513099999999895e+02
3.170000000000000000e+02,1.421112400000000093e+02
3.180000000000000000e+02,1.424704999999999870e+02
3.190000000000000000e+02,1.428291199999999890e+02
3.200000000000000000e+02,1.431870700000000056e+02
3.210000000000000000e+02,1.435443699999999865e+02
3.220000000000000000e+02,1.439010299999999916e+02
3.230000000000000000e+02,1.442570200000000114e+02
3.240000000000000000e+02,1.446123499999999922e+02
3.250000000000000000e+02,1.449670299999999941e+02
3.260000000000000000e+02,1.453210599999999886e+02
3.270000000000000000e+02,1.456744400000000041e+02
3.280000000000000000e+02,1.460271600000000092e+02
3.290000000000000000e+02,1.463792400000000100e+02
3.300000000000000000e+02,1.467306700000000035e+02
3.310000000000000000e+02,1.470814499999999896e+02
3.320000000000000000e+02,1.474315599999999904e+02
3.330000000000000000e+02,1.477810399999999902e+02
3.340000000000000000e+02,1.481298700000000110e+02
3.350000000000000000e+02,1.484780599999999993e+02
3.360000000000000000e+02,1.488255900000000054e+02
3.370000000000000000e+02,1.491724700000000041e+02
3.380000000000000000e+02,1.495187099999999987e+02
3.390000000000000000e+02,1.498642999999999859e+02
3.400000000000000000e+02,1.502092399999999941e+02
3.410000000000000000e+02,1.505535399999999981e+02
3.420000000000000000e+02,1.508971999999999980e+02
3.430000000000000000e+02,1.512402199999999937e+02
3.440000000000000000e+02,1.515825800000000072e+02
3.450000000000000000e+02,1.519243199999999945e+02
3.460000000000000000e+02,1.522653999999999996e+02
3.470000000000000000e+02,1.526058299999999974e+02
3.480000000000000000e+02,1.529456299999999942e+02
3.490000000000000000e+02,1.532847899999999868e+02
3.500000000000000000e+02,1.536233100000000036e+02
3.510000000000000000e+02,1.539611999999999910e+02
3.520000000000000000e+02,1.542984299999999962e+02
3.530000000000000000e+02,1.546350300000000004e+02
3.540000000000000000e+02,1.549709900000000005e+02
3.550000000000000000e+02,1.553063199999999995e+02
3.560000000000000000e+02,1.556410099999999943e+02
3.570000000000000000e+02,1.559750699999999881e+02
3.580000000000000000e+02,1.563084699999999998e+02
3.590000000000000000e+02,1.566412500000000136e+02
3.600000000000000000e+02,1.569733999999999980e+02
3.610000000000000000e+02,1.573049200000000098e+02
3.620000000000000000e+02,1.576357899999999859e+02
3.630000000000000000e+02,1.579660299999999893e+02
3.640000000000000000e+02,1.582956399999999917e+02
3.650000000000000000e+02,1.586246199999999931e+02
3.660000000000000000e+02,1.589529699999999934e+02
3.670000000000000000e+02,1.592806899999999928e+02
3.680000000000000000e+02,1.596077699999999879e+02
3.690000000000000000e+02,1.599342200000000105e+02
3.700000000000000000e+02,1.602600600000000099e+02
3.710000000000000000e+02,1.605852500000000020e+02
3.720000000000000000e+02,1.609098199999999963e+02
3.730000000000000000e+02,1.612337499999999864e+02
3.740000000000000000e+02,1.615570700000000102e+02
3.750000000000000000e+02,1.618797500000000014e+02
3.760000000000000000e+02,1.622018099999999947e+02
3.770000000000000000e+02,1.625232399999999870e+02
3.780000000000000000e+02,1.628440600000000131e+02
3.790000000000000000e+02,1.631642300000000034e+02
3.800000000000000000e+02,1.634838000000000022e+02
3.810000000000000000e+02,1.638027199999999937e+02
3.820000000000000000e+02,1.641210299999999904e+02
3.830000000000000000e+02,1.644387199999999893e+02
3.840000000000000000e+02,1.647557999999999936e+02
3.850000000000000000e+02,1.650722499999999968e+02
3.860000000000000000e+02,1.653880599999999959e+02
3.870000000000000000e+02,1.657032800000000066e+02
3.880000000000000000e+02,1.660178699999999878e+02
3.890000000000000000e+02,1.663318299999999965e+02
3.900000000000000000e+02,1.666451700000000073e+02
3.910000000000000000e+02,1.669578999999999951e+02
3.920000000000000000e+02,1.672700199999999882e+02
3.930000000000000000e+02,1.675815100000000086e+02
3.940000000000000000e+02,1.678923800000000028e+02
3.950000000000000000e+02,1.682026500000000055e+02
3.960000000000000000e+02,1.685123000000000104e+02
3.970000000000000000e+02,1.688213199999999858e+02
3.980000000000000000e+02,1.691297500000000014e+02
3.990000000000000000e+02,1.694375499999999874e+02
4.000000000000000000e+02,1.697447400000000073e+02
4.010000000000000000e+02,1.700513200000000040e+02
4.020000000000000000e+02,1.703572699999999998e+02
4.030000000000000000e+02,1.706626300000000072e+02
4.040000000000000000e+02,1.709673799999999915e+02
4.050000000000000000e+02,1.712715000000000032e+02
4.060000000000000000e+02,1.715750299999999982e+02
4.070000000000000000e+02,1.718779399999999953e+02
4.080000000000000000e+02,1.721802399999999977e+02
4.090000000000000000e+02,1.724819300000000055e+02
4.100000000000000000e+02,1.727830199999999934e+02
4.110000000000000000e+02,1.730835099999999898e+02
4.120000000000000000e+02,1.733833899999999915e+02
4.130000000000000000e+02,1.736826499999999953e+02
4.140000000000000000e+02,1.739813100000000077e+02
4.150000000000000000e+02,1.742793700000000001e+02
4.160000000000000000e+02,1.745768300000000011e+02
4.170000000000000000e+02,1.748736900000000105e+02
4.180000000000000000e+02,1.751699399999999969e+02
4.190000000000000000e+02,1.754655799999999886e+02
4.200000000000000000e+02,1.757606199999999887e+02
4.210000000000000000e+02,1.760550700000000006e+02
4.220000000000000000e+02,1.763489099999999894e+02
4.230000000000000000e+02,1.766421499999999867e+02
4.240000000000000000e+02,1.769347999999999956e+02
4.250000000000000000e+02,1.772268400000000099e+02
4.260000000000000000e+02,1.775182800000000043e+02
4.270000000000000000e+02,1.778091300000000103e+02
4.280000000000000000e+02,1.780993799999999965e+02
4.290000000000000000e+02,1.783890399999999943e+02
4.300000000000000000e+02,1.786781000000000006e+02
4.310000000000000000e+02,1.789665699999999902e+02
4.320000000000000000e+02,1.792544300000000135e+02
4.330000000000000000e+02,1.795416999999999916e+02
4.340000000000000000e+02,1.798283800000000099e+02
4.350000000000000000e+02,1.801144700000000114e+02
4.360000000000000000e+02,1.803999799999999993e+02
4.370000000000000000e+02,1.806848899999999958e+02
4.380000000000000000e+02,1.809691899999999976e+02
4.390000000000000000e+02,1.812529100000000142e+02
4.400000000000000000e+02,1.815360599999999920e+02
4.410000000000000000e+02,1.818186000000000035e+02
4.420000000000000000e+02,1.821005600000000015e+02
4.430000000000000000e+02,1.823819300000000112e+02
4.440000000000000000e+02,1.826627200000000073e+02
4.450000000000000000e+02,1.829429199999999867e+02
4.460000000000000000e+02,1.832225300000000061e+02
4.470000000000000000e+02,1.835015600000000120e+02
4.480000000000000000e+02,1.837800000000000011e+02
4.490000000000000000e+02,1.840578600000000051e+02
4.500000000000000000e+02,1.843351399999999956e+02
4.510000000000000000e+02,1.846118500000000040e+02
4.520000000000000000e+02,1.848879499999999894e+02
4.530000000000000000e+02,1.851634799999999927e+02
4.540000000000000000e+02,1.854384499999999889e+02
4.550000000000000000e+02,1.857128099999999904e+02
4.560000000000000000e+02,1.859866199999999878e+02
4.570000000000000000e+02,1.862598299999999938e+02
4.580000000000000000e+02,1.865324699999999893e+02
4.590000000000000000e+02,1.868045299999999997e+02
4.600000000000000000e+02,1.870760199999999998e+02
4.610000000000000000e+02,1.873469399999999894e+02
4.620000000000000000e+02,1.876172599999999875e+02
4.630000000000000000e+02,1.878870400000000132e+02
4.640000000000000000e+02,1.881562199999999905e+02
4.650000000000000000e+02,1.884248499999999922e+02
4.660000000000000000e+02,1.886929000000000087e+02
4.670000000000000000e+02,1.889603700000000117e+02
4.680000000000000000e+02,1.892272800000000075e+02
4.690000000000000000e+02,1.894936199999999928e+02
4.700000000000000000e+02,1.897593999999999994e+02
4.710000000000000000e+02,1.900245999999999924e+02
4.720000000000000000e+02,1.902892300000000034e+02
4.730000000000000000e+02,1.905533000000000072e+02
4.740000000000000000e+02,1.908168000000000006e+02
4.750000000000000000e+02,1.910797599999999932e+02
4.760000000000000000e+02,1.913421299999999974e+02
4.770000000000000000e+02,1.916039399999999944e+02
4.780000000000000000e+02,1.918651999999999873e+02
4.790000000000000000e+02,1.921258899999999983e+02
4.800000000000000000e+02,1.923860200000000020e+02
4.810000000000000000e+02,1.926456000000000017e+02
4.820000000000000000e+02,1.929045999999999879e+02
4.830000000000000000e+02,1.931630600000000015e+02
4.840000000000000000e+02,1.934209400000000016e+02
4.850000000000000000e+02,1.936783000000000072e+02
4.860000000000000000e+02,1.939350699999999961e+02
4.870000000000000000e+02,1.941913000000000125e+02
4.880000000000000000e+02,1.944469799999999964e+02
4.890000000000000000e+02,1.947021000000000015e+02
4.900000000000000000e+02,1.949566700000000026e+02
4.910000000000000000e+02,1.952106799999999964e+02
4.920000000000000000e+02,1.954641599999999926e+02
4.930000000000000000e+02,1.957170700000000068e+02
4.940000000000000000e+02,1.959694399999999916e+02
4.950000000000000000e+02,1.962212499999999977e+02
4.960000000000000000e+02,1.964725300000000061e+02
4.970000000000000000e+02,1.967232500000000073e+02
4.980000000000000000e+02,1.969734300000000076e+02
4.990000000000000000e+02,1.972230700000000070e+02
5.000000000000000000e+02,1.974721700000000055e+02
5.010000000000000000e+02,1.977207200000000000e+02
5.020000000000000000e+02,1.979687199999999905e+02
5.030000000000000000e+02,1.982161900000000117e+02
5.040000000000000000e+02,1.984631200000000035e+02
5.050000000000000000e+02,1.987094999999999914e+02
5.060000000000000000e+02,1.989553400000000067e+02
5.070000000000000000e+02,1.992006499999999960e+02
5.080000000000000000e+02,1.994454299999999876e+02
5.090000000000000000e+02,1.996896700000000067e+02
5.100000000000000000e+02,1.999333599999999933e+02
5.110000000000000000e+02,2.001765300000000138e+02
5.120000000000000000e+02,2.004191600000000051e+02
5.130000000000000000e+02,2.006612499999999955e+02
5.140000000000000000e+02,2.009028299999999945e+02
5.150000000000000000e+02,2.011438599999999894e+02
5.160000000000000000e+02,2.013843699999999899e+02
5.170000000000000000e+02,2.016243399999999895e+02
5.180000000000000000e+02,2.018637999999999977e+02
5.190000000000000000e+02,2.021027200000000050e+02
5.200000000000000000e+02,2.023411299999999926e+02
5.210000000000000000e+02,2.025789900000000046e+02
5.220000000000000000e+02,2.028163499999999999e+02
5.230000000000000000e+02,2.030531599999999912e+02
5.240000000000000000e+02,2.032894699999999943e+02
5.250000000000000000e+02,2.035252499999999998e+02
5.260000000000000000e+02,2.037605100000000107e+02
5.270000000000000000e+02,2.039952399999999955e+02
5.280000000000000000e+02,2.042294599999999889e+02
5.290000000000000000e+02,2.044631699999999910e+02
5.300000000000000000e+02,2.046963700000000017e+02
5.310000000000000000e+02,2.049290300000000116e+02
5.320000000000000000e+02,2.051611800000000017e+02
5.330000000000000000e+02,2.053928200000000004e+02
5.340000000000000000e+02,2.056239500000000078e+02
5.350000000000000000e+02,2.058545699999999954e+02
5.360000000000000000e+02,2.060846699999999885e+02
5.370000000000000000e+02,2.063142699999999934e+02
5.380000000000000000e+02,2.065433500000000038e+02
5.390000000000000000e+02,2.067719299999999976e+02
5.400000000000000000e+02,2.069999799999999937e+02
5.410000000000000000e+02,2.072275500000000079e+02
5.420000000000000000e+02,2.074546100000000024e+02
5.430000000000000000e+02,2.076811500000000024e+02
5.440000000000000000e+02,2.079072099999999921e+02
5.450000000000000000e+02,2.081327499999999873e+02
5.460000000000000000e+02,2.083577899999999943e+02
5.470000000000000000e+02,2.085823200000000099e+02
5.480000000000000000e+02,2.088063699999999869e+02
5.490000000000000000e+02,2.090299100000000010e+02
5.500000000000000000e+02,2.092529399999999953e+02
5.510000000000000000e+02,2.094754900000000077e+02
5.520000000000000000e+02,2.096975600000000099e+02
5.530000000000000000e+02,2.099190999999999860e+02
5.540000000000000000e+02,2.101401700000000119e+02
5.550000000000000000e+02,2.103607299999999896e+02
5.560000000000000000e+02,2.105808000000000106e+02
5.570000000000000000e+02,2.108003799999999899e+02
5.580000000000000000e+02,2.110194700000000125e+02
5.590000000000000000e+02,2.112380799999999965e+02
5.600000000000000000e+02,2.114561899999999923e+02
5.610000000000000000e+02,2.116738100000000031e+02
5.620000000000000000e+02,2.118909600000000069e+02
5.630000000000000000e+02,2.121075999999999908e+02
5.640000000000000000e+02,2.123237799999999993e+02
5.650000000000000000e+02,2.125394599999999912e+02
5.660000000000000000e+02,2.127546700000000044e+02
5.670000000000000000e+02,2.129693800000000010e+02
5.680000000000000000e+02,2.131836199999999906e+02
5.690000000000000000e+02,2.133973699999999951e+02
5.700000000000000000e+02,2.136106599999999958e+02
5.710000000000000000e+02,2.138234600000000114e+02
5.720000000000000000e+02,2.140357799999999884e+02
5.730000000000000000e+02,2.142476200000000119e+02
5.740000000000000000e+02,2.144590000000000032e+02
5.750000000000000000e+02,2.146698900000000094e+02
5.760000000000000000e+02,2.148803100000000086e+02
5.770000000000000000e+02,2.150902700000000038e+02
5.780000000000000000e+02,2.152997400000000141e+02
5.790000000000000000e+02,2.155087599999999952e+02
5.800000000000000000e+02,2.157172999999999945e+02
5.810000000000000000e+02,2.159253699999999867e+02
5.820000000000000000e+02,2.161329700000000003e+02
5.830000000000000000e+02,2.163401000000000067e+02
5.840000000000000000e+02,2.165467700000000093e+02
5.850000000000000000e+02,2.167529800000000080e+02
5.860000000000000000e+02,2.169587099999999964e+02
5.870000000000000000e+02,2.171639900000000125e+02
5.880000000000000000e+02,2.173687999999999931e+02
5.890000000000000000e+02,2.175731499999999983e+02
5.900000000000000000e+02,2.177770500000000027e+02
5.910000000000000000e+02,2.179804800000000000e+02
5.920000000000000000e+02,2.181834599999999966e+02
5.930000000000000000e+02,2.183859699999999862e+02
5.940000000000000000e+02,2.185880400000000066e+02
5.950000000000000000e+02,2.187896399999999915e+02
5.960000000000000000e+02,2.189908000000000072e+02
5.970000000000000000e+02,2.191914999999999907e+02
5.980000000000000000e+02,2.193917399999999986e+02
5.990000000000000000e+02,2.195915200000000027e+02