# Time [s], Convective Heat Transfer Coefficient [W/m2K]
1.000000000000000000e+00,0.000000000000000000e+00
2.000000000000000000e+00,0.000000000000000000e+00
3.000000000000000000e+00,0.000000000000000000e+00
4.000000000000000000e+00,0.000000000000000000e+00
5.000000000000000000e+00,0.000000000000000000e+00
6.000000000000000000e+00,1.915079995362458862e-02
7.000000000000000000e+00,3.040000000141642594e-02
8.000000000000000000e+00,4.669921575117047530e-02
9.000000000000000000e+00,6.811735214770563152e-02
1.000000000000000000e+01,9.419674740800133839e-02
1.100000000000000000e+01,1.258808595825459120e-01
1.200000000000000000e+01,1.624608829616587258e-01
1.300000000000000000e+01,2.037052794049153959e-01
1.400000000000000000e+01,2.491491202709449904e-01
1.500000000000000000e+01,2.983607027531958167e-01
1.600000000000000000e+01,3.507646100815735579e-01
1.700000000000000000e+01,4.058743747155860171e-01
1.800000000000000000e+01,4.632422932717366049e-01
1.900000000000000000e+01,5.224446962953803730e-01
2.000000000000000000e+01,5.830983702586055584e-01
2.100000000000000000e+01,6.448827007365081077e-01
2.200000000000000000e+01,7.075031504044635433e-01
2.300000000000000000e+01,7.707073206338354021e-01
2.400000000000000000e+01,8.342863851859971813e-01
2.500000000000000000e+01,8.980543588471699978e-01
2.600000000000000000e+01,9.618499271460653199e-01
2.700000000000000000e+01,1.025545118886888707e+00
2.800000000000000000e+01,1.089020566177724580e+00
2.900000000000000000e+01,1.152186002759453931e+00
3.000000000000000000e+01,1.214954893694402571e+00
3.100000000000000000e+01,1.277260831386001438e+00
3.200000000000000000e+01,1.339048946400530848e+00
3.300000000000000000e+01,1.400277126266506134e+00
3.400000000000000000e+01,1.460908877571972520e+00
3.500000000000000000e+01,1.520910947286797654e+00
3.600000000000000000e+01,1.580255951835105144e+00
3.700000000000000000e+01,1.638932017421565801e+00
3.800000000000000000e+01,1.696924349865439607e+00
3.900000000000000000e+01,1.754216474618031318e+00
4.000000000000000000e+01,1.810807835605311888e+00
4.100000000000000000e+01,1.866693260016602851e+00
4.200000000000000000e+01,1.921871968019202459e+00
4.300000000000000000e+01,1.976343214544810767e+00
4.400000000000000000e+01,2.030105801798250287e+00
4.500000000000000000e+01,2.083170688149730054e+00
4.600000000000000000e+01,2.135539136152054596e+00
4.700000000000000000e+01,2.187219190362169385e+00
4.800000000000000000e+01,2.238219084489589061e+00
4.900000000000000000e+01,2.288543001836802038e+00
5.000000000000000000e+01,2.338203755558418973e+00
5.100000000000000000e+01,2.387203645651819972e+00
5.200000000000000000e+01,2.435556702180440514e+00
5.300000000000000000e+01,2.483272865622550007e+00
5.400000000000000000e+01,2.530358247587437770e+00
5.500000000000000000e+01,2.576828576789307323e+00
5.600000000000000000e+01,2.622689400461106324e+00
5.700000000000000000e+01,2.667950690225855848e+00
5.800000000000000000e+01,2.712625883698196905e+00
5.900000000000000000e+01,2.756722786815457127e+00
6.000000000000000000e+01,2.800254670778866917e+00
6.100000000000000000e+01,2.843230557898702493e+00
6.200000000000000000e+01,2.885657468847462326e+00
6.300000000000000000e+01,2.927545025825684100e+00
6.400000000000000000e+01,2.968906506805756962e+00
6.500000000000000000e+01,3.009753139845528391e+00
6.600000000000000000e+01,3.050091311388431148e+00
6.700000000000000000e+01,3.089929280085121910e+00
6.800000000000000000e+01,3.129279300909910688e+00
6.900000000000000000e+01,3.168148243870686276e+00
7.000000000000000000e+01,3.206548795257750939e+00
7.100000000000000000e+01,3.244484633363545534e+00
7.200000000000000000e+01,3.281965665405221610e+00
7.300000000000000000e+01,3.319001576311591872e+00
7.400000000000000000e+01,3.355598195099268821e+00
7.500000000000000000e+01,3.391765619915322549e+00
7.600000000000000000e+01,3.427514968482318736e+00
7.700000000000000000e+01,3.462850255467800675e+00
7.800000000000000000e+01,3.497778749520918939e+00
7.900000000000000000e+01,3.532309329977609380e+00
8.000000000000000000e+01,3.566449008972270907e+00
8.100000000000000000e+01,3.600204721579255196e+00
8.200000000000000000e+01,3.633582259487463606e+00
8.300000000000000000e+01,3.666588802917388534e+00
8.400000000000000000e+01,3.699232448216349223e+00
8.500000000000000000e+01,3.731516489268932091e+00
8.600000000000000000e+01,3.763449983116489150e+00
8.700000000000000000e+01,3.795041250373131003e+00
8.800000000000000000e+01,3.826294572563281093e+00
8.900000000000000000e+01,3.857215939377027780e+00
9.000000000000000000e+01,3.887810663565790303e+00
9.100000000000000000e+01,3.918084572712019042e+00
9.200000000000000000e+01,3.948043290390313320e+00
9.300000000000000000e+01,3.977692173915820639e+00
9.400000000000000000e+01,4.007036476437709993e+00
9.500000000000000000e+01,4.036081064036841859e+00
9.600000000000000000e+01,4.064831432200635142e+00
9.700000000000000000e+01,4.093292122613344297e+00
9.800000000000000000e+01,4.121468164389136213e+00
9.900000000000000000e+01,4.149364223343690483e+00
1.000000000000000000e+02,4.176985093841999230e+00
1.010000000000000000e+02,4.204335887436571717e+00
1.020000000000000000e+02,4.231421226634228816e+00
1.030000000000000000e+02,4.258246371950302311e+00
1.040000000000000000e+02,4.284816798740854082e+00
1.050000000000000000e+02,4.311138435300572169e+00
1.060000000000000000e+02,4.337207243043949667e+00
1.070000000000000000e+02,4.363029790056956791e+00
1.080000000000000000e+02,4.388609988394686745e+00
1.090000000000000000e+02,4.413952310684718938e+00
1.100000000000000000e+02,4.439060391508121484e+00
1.110000000000000000e+02,4.463938248534493169e+00
1.120000000000000000e+02,4.488589563735837729e+00
1.130000000000000000e+02,4.513017701165336959e+00
1.140000000000000000e+02,4.537226747015750128e+00
1.150000000000000000e+02,4.561219895845341377e+00
1.160000000000000000e+02,4.585000443245268009e+00
1.170000000000000000e+02,4.608571449633961592e+00
1.180000000000000000e+02,4.631936733938609940e+00
1.190000000000000000e+02,4.655099107038917161e+00
1.200000000000000000e+02,4.678061865424837151e+00
1.210000000000000000e+02,4.700828979368862015e+00
1.220000000000000000e+02,4.723402332395210124e+00
1.230000000000000000e+02,4.745786185596660545e+00
1.240000000000000000e+02,4.767978879528984137e+00
1.250000000000000000e+02,4.789984993700399762e+00
1.260000000000000000e+02,4.811807731711380320e+00
1.270000000000000000e+02,4.833449584602439231e+00
1.280000000000000000e+02,4.854913405402991877e+00
1.290000000000000000e+02,4.876201802532576401e+00
1.300000000000000000e+02,4.897317540892391463e+00
1.310000000000000000e+02,4.918263196510624269e+00
1.320000000000000000e+02,4.939041164596033262e+00
1.330000000000000000e+02,4.959653714714499451e+00
1.340000000000000000e+02,4.980103373583821380e+00
1.350000000000000000e+02,5.000392727431052009e+00
1.360000000000000000e+02,5.020525813007995275e+00
1.370000000000000000e+02,5.040499766952711624e+00
1.380000000000000000e+02,5.060318216195450525e+00
1.390000000000000000e+02,5.079983858694243182e+00
1.400000000000000000e+02,5.099498769537314402e+00
1.410000000000000000e+02,5.118865452251917247e+00
1.420000000000000000e+02,5.138085625698813885e+00
1.430000000000000000e+02,5.157161441649318334e+00
1.440000000000000000e+02,5.176094988391578333e+00
1.450000000000000000e+02,5.194887729285524003e+00
1.460000000000000000e+02,5.213542161779347595e+00
1.470000000000000000e+02,5.232060497992732984e+00
1.480000000000000000e+02,5.250445736561733412e+00
1.490000000000000000e+02,5.268696364408540056e+00
1.500000000000000000e+02,5.286813715131255087e+00
1.510000000000000000e+02,5.304800457576937411e+00
1.520000000000000000e+02,5.322658195935977332e+00
1.530000000000000000e+02,5.340389024069616575e+00
1.540000000000000000e+02,5.357994530920091591e+00
1.550000000000000000e+02,5.375476424798953268e+00
1.560000000000000000e+02,5.392836127149695180e+00
1.570000000000000000e+02,5.410075341742852650e+00
1.580000000000000000e+02,5.427195966377849068e+00
1.590000000000000000e+02,5.444199297085116740e+00
1.600000000000000000e+02,5.461086596421187878e+00
1.610000000000000000e+02,5.477859718735639483e+00
1.620000000000000000e+02,5.494521518841509966e+00
1.630000000000000000e+02,5.511069385653690311e+00
1.640000000000000000e+02,5.527505596287364042e+00
1.650000000000000000e+02,5.543831572580052658e+00
1.660000000000000000e+02,5.560049534557223616e+00
1.670000000000000000e+02,5.576160218660992207e+00
1.680000000000000000e+02,5.592165465858114359e+00
1.690000000000000000e+02,5.608065994335317050e+00
1.700000000000000000e+02,5.623863614905419972e+00
1.710000000000000000e+02,5.639559470743678027e+00
1.720000000000000000e+02,5.655154495226444311e+00
1.730000000000000000e+02,5.670650364228775331e+00
1.740000000000000000e+02,5.686047919200071021e+00
1.750000000000000000e+02,5.701348810282765633e+00
1.760000000000000000e+02,5.716554328579727340e+00
1.770000000000000000e+02,5.731667161790839238e+00
1.780000000000000000e+02,5.746686359907271502e+00
1.790000000000000000e+02,5.761610814973621153e+00
1.800000000000000000e+02,5.776443053733559374e+00
1.810000000000000000e+02,5.791183560276008002e+00
1.820000000000000000e+02,5.805833779750254386e+00
1.830000000000000000e+02,5.820394608490566668e+00
1.840000000000000000e+02,5.834867439266394840e+00
1.850000000000000000e+02,5.849252951643656218e+00
1.860000000000000000e+02,5.863552184982036231e+00
1.870000000000000000e+02,5.877765953753925743e+00
1.880000000000000000e+02,5.891895392553187172e+00
1.890000000000000000e+02,5.905941277326936856e+00
1.900000000000000000e+02,5.919904835592220138e+00
1.910000000000000000e+02,5.933786339578514202e+00
1.920000000000000000e+02,5.947587047847449959e+00
1.930000000000000000e+02,5.961307667334820870e+00
1.940000000000000000e+02,5.974949185807141738e+00
1.950000000000000000e+02,5.988512212716208261e+00
1.960000000000000000e+02,6.001997735162028391e+00
1.970000000000000000e+02,6.015406397802515848e+00
1.980000000000000000e+02,6.028739347898434353e+00
1.990000000000000000e+02,6.041996909614335998e+00
2.000000000000000000e+02,6.055181730856039835e+00
2.010000000000000000e+02,6.068291644166611931e+00
2.020000000000000000e+02,6.081328981153574453e+00
2.030000000000000000e+02,6.094294551064914245e+00
2.040000000000000000e+02,6.107187924260906620e+00
2.050000000000000000e+02,6.120010427333537173e+00
2.060000000000000000e+02,6.132763270189520277e+00
2.070000000000000000e+02,6.145446494735586462e+00
2.080000000000000000e+02,6.158060851034846905e+00
2.090000000000000000e+02,6.170606860575484909e+00
2.100000000000000000e+02,6.183085249609505674e+00
2.110000000000000000e+02,6.195496945080676277e+00
2.120000000000000000e+02,6.207842432798871712e+00
2.130000000000000000e+02,6.220122371341292755e+00
2.140000000000000000e+02,6.232337498279821197e+00
2.150000000000000000e+02,6.244488178385867450e+00
2.160000000000000000e+02,6.256575337920369684e+00
2.170000000000000000e+02,6.268599143129011786e+00
2.180000000000000000e+02,6.280560468931843943e+00
2.190000000000000000e+02,6.292459969024387867e+00
2.200000000000000000e+02,6.304297756113776963e+00
2.210000000000000000e+02,6.316074908572256064e+00
2.220000000000000000e+02,6.327791815386309970e+00
2.230000000000000000e+02,6.339448800601791945e+00
2.240000000000000000e+02,6.351046937124261049e+00
2.250000000000000000e+02,6.362586298182280053e+00
2.260000000000000000e+02,6.374067473647691884e+00
2.270000000000000000e+02,6.385491244979912828e+00
2.280000000000000000e+02,6.396857666432676837e+00
2.290000000000000000e+02,6.408167132674591926e+00
2.300000000000000000e+02,6.419420287586771856e+00
2.310000000000000000e+02,6.430617906715089482e+00
2.320000000000000000e+02,6.441760584733248862e+00
2.330000000000000000e+02,6.452848822947825802e+00
2.340000000000000000e+02,6.463882834812221034e+00
2.350000000000000000e+02,6.474863109277250395e+00
2.360000000000000000e+02,6.485790406153755683e+00
2.370000000000000000e+02,6.496664919561698781e+00
2.380000000000000000e+02,6.507486563816894609e+00
2.390000000000000000e+02,6.518255804596913450e+00
2.400000000000000000e+02,6.528974199092099973e+00
2.410000000000000000e+02,6.539641367357883261e+00
2.420000000000000000e+02,6.550258297789475215e+00
2.430000000000000000e+02,6.560823789665239048e+00
2.440000000000000000e+02,6.571340180965838940e+00
2.450000000000000000e+02,6.581807347143513454e+00
2.460000000000000000e+02,6.592225433896683917e+00
2.470000000000000000e+02,6.602595389943892279e+00
2.480000000000000000e+02,6.612917348389562022e+00
2.490000000000000000e+02,6.623191173150139832e+00
2.500000000000000000e+02,6.633417527227670973e+00
2.510000000000000000e+02,6.643596799575122169e+00
2.520000000000000000e+02,6.653729638135168933e+00
2.530000000000000000e+02,6.663816418722306345e+00
2.540000000000000000e+02,6.673856986340607200e+00
2.550000000000000000e+02,6.683851973300191318e+00
2.560000000000000000e+02,6.693801481222640071e+00
2.570000000000000000e+02,6.703706130851981193e+00
2.580000000000000000e+02,6.713566015557690392e+00
2.590000000000000000e+02,6.723382262835100320e+00
2.600000000000000000e+02,6.733154695416728508e+00
2.610000000000000000e+02,6.742883394960075272e+00
2.620000000000000000e+02,6.752568441581783709e+00
2.630000000000000000e+02,6.762211449846771139e+00
2.640000000000000000e+02,6.771811717975609213e+00
2.650000000000000000e+02,6.781368806103599489e+00
2.660000000000000000e+02,6.790884563247359118e+00
2.670000000000000000e+02,6.800358539028323435e+00
2.680000000000000000e+02,6.809792054532318062e+00
2.690000000000000000e+02,6.819184401845983068e+00
2.700000000000000000e+02,6.828536135527686568e+00
2.710000000000000000e+02,6.837847553180551152e+00
2.720000000000000000e+02,6.847118698964210104e+00
2.730000000000000000e+02,6.856350363074526832e+00
2.740000000000000000e+02,6.865542333323517710e+00
2.750000000000000000e+02,6.874695142335527365e+00
2.760000000000000000e+02,6.883808822511070069e+00
2.770000000000000000e+02,6.892883898165731438e+00
2.780000000000000000e+02,6.901920396141887792e+00
2.790000000000000000e+02,6.910919077798345356e+00
2.800000000000000000e+02,6.919879962723388900e+00
2.810000000000000000e+02,6.928803557497287713e+00
2.820000000000000000e+02,6.937689876615935169e+00
2.830000000000000000e+02,6.946538933964953699e+00
2.840000000000000000e+02,6.955351468747327459e+00
2.850000000000000000e+02,6.964127488146662159e+00
2.860000000000000000e+02,6.972867239588149246e+00
2.870000000000000000e+02,6.981570487254605162e+00
2.880000000000000000e+02,6.990238434615152485e+00
2.890000000000000000e+02,6.998871077929202933e+00
2.900000000000000000e+02,7.007467697905308768e+00
2.910000000000000000e+02,7.016029246502078820e+00
2.920000000000000000e+02,7.024556428748139680e+00
2.930000000000000000e+02,7.033049232464362532e+00
2.940000000000000000e+02,7.041507645186996456e+00
2.950000000000000000e+02,7.049932125217058143e+00
2.960000000000000000e+02,7.058322421186726814e+00
2.970000000000000000e+02,7.066678752528674501e+00
2.980000000000000000e+02,7.075002037778515884e+00
2.990000000000000000e+02,7.083291553275176788e+00
3.000000000000000000e+02,7.091547978337561453e+00
3.010000000000000000e+02,7.099772450045093386e+00
3.020000000000000000e+02,7.107964241041141662e+00
3.030000000000000000e+02,7.116123554949674634e+00
3.040000000000000000e+02,7.124250593156516764e+00
3.050000000000000000e+02,7.132345324727878300e+00
3.060000000000000000e+02,7.140409096208721884e+00
3.070000000000000000e+02,7.148440492710657068e+00
3.080000000000000000e+02,7.156441083043610263e+00
3.090000000000000000e+02,7.164410369138802359e+00
3.100000000000000000e+02,7.172348994777083320e+00
3.110000000000000000e+02,7.180256916551775781e+00
3.120000000000000000e+02,7.188133864543766904e+00
3.130000000000000000e+02,7.195980701161308168e+00
3.140000000000000000e+02,7.203797604258183718e+00
3.150000000000000000e+02,7.211583849482815722e+00
3.160000000000000000e+02,7.219340290599736143e+00
3.170000000000000000e+02,7.227067549599833107e+00
3.180000000000000000e+02,7.234765571919765215e+00
3.190000000000000000e+02,7.242434079978924188e+00
3.200000000000000000e+02,7.250073243628055053e+00
3.210000000000000000e+02,7.257683897675713425e+00
3.220000000000000000e+02,7.265265539011720897e+00
3.230000000000000000e+02,7.272818553653831231e+00
3.240000000000000000e+02,7.280343103259458104e+00
3.250000000000000000e+02,7.287839568250954692e+00
3.260000000000000000e+02,7.295308325633760305e+00
3.270000000000000000e+02,7.302749090545563426e+00
3.280000000000000000e+02,7.310161799206968958e+00
3.290000000000000000e+02,7.317546825286600054e+00
3.300000000000000000e+02,7.324904539152093719e+00
3.310000000000000000e+02,7.332235090181087322e+00
3.320000000000000000e+02,7.339538843588374384e+00
3.330000000000000000e+02,7.346815510790698944e+00
3.340000000000000000e+02,7.354065887453286265e+00
3.350000000000000000e+02,7.361288818503157749e+00
3.360000000000000000e+02,7.368485098049779580e+00
3.370000000000000000e+02,7.375655944099902328e+00
3.380000000000000000e+02,7.382800202526739852e+00
3.390000000000000000e+02,7.389918871388578836e+00
3.400000000000000000e+02,7.397011443219027704e+00
3.410000000000000000e+02,7.404077627712080556e+00
3.420000000000000000e+02,7.411118628403611908e+00
3.430000000000000000e+02,7.418134575823938981e+00
3.440000000000000000e+02,7.425124749978328609e+00
3.450000000000000000e+02,7.432090131449876402e+00
3.460000000000000000e+02,7.439030424049872359e+00
3.470000000000000000e+02,7.445945122414604711e+00
3.480000000000000000e+02,7.452835621415633049e+00
3.490000000000000000e+02,7.459702043226366541e+00
3.500000000000000000e+02,7.466543668996558303e+00
3.510000000000000000e+02,7.473361252051850201e+00
3.520000000000000000e+02,7.480154075513115508e+00
3.530000000000000000e+02,7.486922680468364177e+00
3.540000000000000000e+02,7.493667603864923699e+00
3.550000000000000000e+02,7.500388962399032522e+00
3.560000000000000000e+02,7.507086664001137777e+00
3.570000000000000000e+02,7.513760202347289585e+00
3.580000000000000000e+02,7.520410730304957880e+00
3.590000000000000000e+02,7.527038152699498497e+00
3.600000000000000000e+02,7.533642581069576849e+00
3.610000000000000000e+02,7.540223508286516108e+00
3.620000000000000000e+02,7.546781047141739585e+00
3.630000000000000000e+02,7.553316335319886221e+00
3.640000000000000000e+02,7.559829068662175189e+00
3.650000000000000000e+02,7.566318944902760357e+00
3.660000000000000000e+02,7.572786480140760723e+00
3.670000000000000000e+02,7.579231371637968451e+00
3.680000000000000000e+02,7.585654335675751980e+00
3.690000000000000000e+02,7.592055271132956307e+00
3.700000000000000000e+02,7.598433874625411200e+00
3.710000000000000000e+02,7.604791261481051556e+00
3.720000000000000000e+02,7.611126114504542350e+00
3.730000000000000000e+02,7.617439344190738204e+00
3.740000000000000000e+02,7.623731451999528730e+00
3.750000000000000000e+02,7.630001930525297738e+00
3.760000000000000000e+02,7.636250676998594500e+00
3.770000000000000000e+02,7.642478390807128541e+00
3.780000000000000000e+02,7.648685366414349929e+00
3.790000000000000000e+02,7.654871097114764211e+00
3.800000000000000000e+02,7.661036076541191342e+00
3.810000000000000000e+02,7.667179799322568101e+00
3.820000000000000000e+02,7.673302956014855347e+00
3.830000000000000000e+02,7.679405637104697924e+00
3.840000000000000000e+02,7.685487932332538463e+00
3.850000000000000000e+02,7.691549337088315674e+00
3.860000000000000000e+02,7.697590732680499315e+00
3.870000000000000000e+02,7.703612205717947248e+00
3.880000000000000000e+02,7.709613054327417281e+00
3.890000000000000000e+02,7.715594153939582256e+00
3.900000000000000000e+02,7.721555392719759325e+00
3.910000000000000000e+02,7.727496855394229591e+00
3.920000000000000000e+02,7.733418430271946420e+00
3.930000000000000000e+02,7.739320201615330852e+00
3.940000000000000000e+02,7.745203033563925921e+00
3.950000000000000000e+02,7.751066031269879808e+00
3.960000000000000000e+02,7.756909666982361173e+00
3.970000000000000000e+02,7.762734021431805687e+00
3.980000000000000000e+02,7.768539562644749985e+00
3.990000000000000000e+02,7.774325593626962849e+00
4.000000000000000000e+02,7.780092968509922713e+00
4.010000000000000000e+02,7.785840991360853280e+00
4.020000000000000000e+02,7.791570512780438662e+00
4.030000000000000000e+02,7.797281800602768875e+00
4.040000000000000000e+02,7.802973967395224086e+00
4.050000000000000000e+02,7.808647666590031733e+00
4.060000000000000000e+02,7.814302205757530650e+00
4.070000000000000000e+02,7.819939002009357765e+00
4.080000000000000000e+02,7.825557743791482501e+00
4.090000000000000000e+02,7.831158121200935796e+00
4.100000000000000000e+02,7.836740016568802147e+00
4.110000000000000000e+02,7.842304264430835836e+00
4.120000000000000000e+02,7.847850744119508448e+00
4.130000000000000000e+02,7.853379145714947107e+00
4.140000000000000000e+02,7.858889350434332677e+00
4.150000000000000000e+02,7.864382186362946392e+00
4.160000000000000000e+02,7.869857342797125455e+00
4.170000000000000000e+02,7.875314699370954408e+00
4.180000000000000000e+02,7.880754701698624132e+00
4.190000000000000000e+02,7.886177792805221465e+00
4.200000000000000000e+02,7.891583285357933519e+00
4.210000000000000000e+02,7.896971246494691066e+00
4.220000000000000000e+02,7.902342305218274632e+00
4.230000000000000000e+02,7.907695963780684956e+00
4.240000000000000000e+02,7.913033222588874871e+00
4.250000000000000000e+02,7.918352836164123332e+00
4.260000000000000000e+02,7.923656362303312051e+00
4.270000000000000000e+02,7.928942743561701256e+00
4.280000000000000000e+02,7.934212229669213023e+00
4.290000000000000000e+02,7.939465254610042599e+00
4.300000000000000000e+02,7.944701508107539389e+00
4.310000000000000000e+02,7.949921237050878275e+00
4.320000000000000000e+02,7.955124686912872889e+00
4.330000000000000000e+02,7.960312101766570336e+00
4.340000000000000000e+02,7.965482801825153558e+00
4.350000000000000000e+02,7.970637031989314281e+00
4.360000000000000000e+02,7.975775771849948903e+00
4.370000000000000000e+02,7.980898341798859263e+00
4.380000000000000000e+02,7.986004432696743649e+00
4.390000000000000000e+02,7.991095020064424403e+00
4.400000000000000000e+02,7.996169426611183795e+00
4.410000000000000000e+02,8.001228258319702746e+00
4.420000000000000000e+02,8.006271204900750504e+00
4.430000000000000000e+02,8.011298687079648317e+00
4.440000000000000000e+02,8.016310212549093706e+00
4.450000000000000000e+02,8.021306564902054959e+00
4.460000000000000000e+02,8.026287433463865639e+00
4.470000000000000000e+02,8.031252690480439327e+00
4.480000000000000000e+02,8.036202389981800920e+00
4.490000000000000000e+02,8.041137309782486753e+00
4.500000000000000000e+02,8.046056777234332102e+00
4.510000000000000000e+02,8.050960664665526068e+00
4.520000000000000000e+02,8.055850287949949617e+00
4.530000000000000000e+02,8.060724434229198820e+00
4.540000000000000000e+02,8.065583515898740785e+00
4.550000000000000000e+02,8.070427943264160575e+00
4.560000000000000000e+02,8.075257226998632021e+00
4.570000000000000000e+02,8.080071776508422232e+00
4.580000000000000000e+02,8.084871640977343787e+00
4.590000000000000000e+02,8.089657048133000572e+00
4.600000000000000000e+02,8.094427331211338839e+00
4.610000000000000000e+02,8.099183789482767182e+00
4.620000000000000000e+02,8.103925220594190293e+00
4.630000000000000000e+02,8.108652564167602605e+00
4.640000000000000000e+02,8.113365332706832689e+00
4.650000000000000000e+02,8.118063751383743920e+00
4.660000000000000000e+02,8.122747689392893378e+00
4.670000000000000000e+02,8.127418256951491671e+00
4.680000000000000000e+02,8.132073903890617572e+00
4.690000000000000000e+02,8.136715739212309728e+00
4.700000000000000000e+02,8.141343807106938613e+00
4.710000000000000000e+02,8.145957445834740795e+00
4.720000000000000000e+02,8.150557406250639403e+00
4.730000000000000000e+02,8.155143731680498220e+00
4.740000000000000000e+02,8.159715586088506001e+00
4.750000000000000000e+02,8.164273893288646278e+00
4.760000000000000000e+02,8.168818695761382642e+00
4.770000000000000000e+02,8.173349860484314888e+00
4.780000000000000000e+02,8.177867429975805180e+00
4.790000000000000000e+02,8.182371096792500964e+00
4.800000000000000000e+02,8.186861602668450644e+00
4.810000000000000000e+02,8.191338988158173962e+00
4.820000000000000000e+02,8.195802770745485688e+00
4.830000000000000000e+02,8.200253166259429349e+00
4.840000000000000000e+02,8.204690215614368398e+00
4.850000000000000000e+02,8.209113959464556132e+00
4.860000000000000000e+02,8.213524264685931442e+00
4.870000000000000000e+02,8.217922211984021175e+00
4.880000000000000000e+02,8.222306626421669762e+00
4.890000000000000000e+02,8.226677894679585989e+00
4.900000000000000000e+02,8.231036401713661022e+00
4.910000000000000000e+02,8.235381667771310532e+00
4.920000000000000000e+02,8.239714766813035496e+00
4.930000000000000000e+02,8.244034529116284205e+00
4.940000000000000000e+02,8.248341338303408321e+00
4.950000000000000000e+02,8.252635920074039788e+00
4.960000000000000000e+02,8.256917280025337647e+00
4.970000000000000000e+02,8.261186143034560558e+00
4.980000000000000000e+02,8.265442716867530848e+00
4.990000000000000000e+02,8.269686181335044850e+00
5.000000000000000000e+02,8.273917600493211566e+00
5.010000000000000000e+02,8.278136496578143877e+00
5.020000000000000000e+02,8.282342734996856137e+00
5.030000000000000000e+02,8.286537374958914626e+00
5.040000000000000000e+02,8.290718916762459756e+00
5.050000000000000000e+02,8.294888418667586194e+00
5.060000000000000000e+02,8.299045404948090621e+00
5.070000000000000000e+02,8.303190420466224353e+00
5.080000000000000000e+02,8.307323668592816901e+00
5.090000000000000000e+02,8.311444335089575475e+00
5.100000000000000000e+02,8.315553301755105764e+00
5.110000000000000000e+02,8.319649924742702041e+00
5.120000000000000000e+02,8.323734914314535160e+00
5.130000000000000000e+02,8.327807965137372648e+00
5.140000000000000000e+02,8.331869278882557239e+00
5.150000000000000000e+02,8.335918550982777120e+00
5.160000000000000000e+02,8.339955814582637572e+00
5.170000000000000000e+02,8.343981438902289938e+00
5.180000000000000000e+02,8.347995791672092381e+00
5.190000000000000000e+02,8.351998232262802802e+00
5.200000000000000000e+02,8.355988960702164903e+00
5.210000000000000000e+02,8.359968008693003938e+00
5.220000000000000000e+02,8.363935742422521358e+00
5.230000000000000000e+02,8.367892359449765394e+00
5.240000000000000000e+02,8.371837054409168033e+00
5.250000000000000000e+02,8.375770359805249754e+00
5.260000000000000000e+02,8.379692139251998739e+00
5.270000000000000000e+02,8.383602756463488959e+00
5.280000000000000000e+02,8.387502240943605969e+00
5.290000000000000000e+02,8.391390788269230683e+00
5.300000000000000000e+02,8.395267762790981081e+00
5.310000000000000000e+02,8.399133360822050420e+00
5.320000000000000000e+02,8.402987943673176474e+00
5.330000000000000000e+02,8.406831374373792798e+00
5.340000000000000000e+02,8.410663847356355305e+00
5.350000000000000000e+02,8.414485721617330327e+00
5.360000000000000000e+02,8.418296363706812002e+00
5.370000000000000000e+02,8.422095802536407660e+00
5.380000000000000000e+02,8.425884561503497849e+00
5.390000000000000000e+02,8.429662008913730631e+00
5.400000000000000000e+02,8.433428831987145102e+00
5.410000000000000000e+02,8.437184893220194937e+00
5.420000000000000000e+02,8.440931041322709660e+00
5.430000000000000000e+02,8.444665823825900475e+00
5.440000000000000000e+02,8.448389925423299474e+00
5.450000000000000000e+02,8.452103372887105337e+00
5.460000000000000000e+02,8.455806192839668611e+00
5.470000000000000000e+02,8.459498411754532654e+00
5.480000000000000000e+02,8.463180055957465697e+00
5.490000000000000000e+02,8.466851641504312909e+00
5.500000000000000000e+02,8.470512540553732705e+00
5.510000000000000000e+02,8.474162942431799905e+00
5.520000000000000000e+02,8.477803198628214076e+00
5.530000000000000000e+02,8.481433008449778654e+00
5.540000000000000000e+02,8.485052234771339741e+00
5.550000000000000000e+02,8.488661390696856657e+00
5.560000000000000000e+02,8.492260013635545945e+00
5.570000000000000000e+02,8.495848939945691569e+00
5.580000000000000000e+02,8.499427706769822066e+00
5.590000000000000000e+02,8.502996176572617415e+00
5.600000000000000000e+02,8.506554373999227536e+00
5.610000000000000000e+02,8.510102808469644842e+00
5.620000000000000000e+02,8.513640857141242080e+00
5.630000000000000000e+02,8.517169028768325489e+00
5.640000000000000000e+02,8.520687185429268951e+00
5.650000000000000000e+02,8.524195511813434933e+00
5.660000000000000000e+02,8.527693870013049349e+00
5.670000000000000000e+02,8.531182122523372158e+00
5.680000000000000000e+02,8.534661096485010034e+00
5.690000000000000000e+02,8.538130010526803204e+00
5.700000000000000000e+02,8.541589369344396943e+00
5.710000000000000000e+02,8.545038714046661710e+00
5.720000000000000000e+02,8.548478227928841378e+00
5.730000000000000000e+02,8.551908413767899120e+00
5.740000000000000000e+02,8.555328653158460028e+00
5.750000000000000000e+02,8.558739448257133731e+00
5.760000000000000000e+02,8.562140660863281738e+00
5.770000000000000000e+02,8.565532153169462148e+00
5.780000000000000000e+02,8.568914425459274398e+00
5.790000000000000000e+02,8.572286861293315852e+00
5.800000000000000000e+02,8.575650119525185744e+00
5.810000000000000000e+02,8.579003743543673011e+00
5.820000000000000000e+02,8.582348231679846506e+00
5.830000000000000000e+02,8.585683286652333379e+00
5.840000000000000000e+02,8.589008929419698291e+00
5.850000000000000000e+02,8.592325339388681371e+00
5.860000000000000000e+02,8.595632378497040094e+00
5.870000000000000000e+02,8.598930384006497007e+00
5.880000000000000000e+02,8.602219217522485195e+00
5.890000000000000000e+02,8.605498582958437837e+00
5.900000000000000000e+02,8.608768974849002831e+00
5.910000000000000000e+02,8.612030412685371061e+00
5.920000000000000000e+02,8.615282442717095535e+00
5.930000000000000000e+02,8.618525715686850219e+00
5.940000000000000000e+02,8.621759777999063346e+00
5.950000000000000000e+02,8.624984649454697561e+00
5.960000000000000000e+02,8.628200821478747784e+00
5.970000000000000000e+02,8.631407998365734358e+00
5.980000000000000000e+02,8.634606042257136238e+00