# Time [s], Temperature [C]
1.000000000000000000e+00,2.499997499999999917e+01
2.000000000000000000e+00,3.272518199999999666e+01
3.000000000000000000e+00,3.732689700000000244e+01
4.000000000000000000e+00,4.109210199999999702e+01
5.000000000000000000e+00,4.426714299999999724e+01
6.000000000000000000e+00,4.707138799999999890e+01
7.000000000000000000e+00,4.959657700000000347e+01
8.000000000000000000e+00,5.190835200000000071e+01
9.000000000000000000e+00,5.404803499999999872e+01
1.000000000000000000e+01,5.604601699999999909e+01
1.100000000000000000e+01,5.792448799999999665e+01
1.200000000000000000e+01,5.970042800000000227e+01
1.300000000000000000e+01,6.138695100000000338e+01
1.400000000000000000e+01,6.299492300000000000e+01
1.500000000000000000e+01,6.453296699999999930e+01
1.600000000000000000e+01,6.600824699999999723e+01
1.700000000000000000e+01,6.742682600000000548e+01
1.800000000000000000e+01,6.879410599999999931e+01
1.900000000000000000e+01,7.011404400000000692e+01
2.000000000000000000e+01,7.139105200000000195e+01
2.100000000000000000e+01,7.262800599999999918e+01
2.200000000000000000e+01,7.382776599999999689e+01
2.300000000000000000e+01,7.499335499999999399e+01
2.400000000000000000e+01,7.612668600000000652e+01
2.500000000000000000e+01,7.723008000000000095e+01
2.600000000000000000e+01,7.830527499999999463e+01
2.700000000000000000e+01,7.935377499999999884e+01
2.800000000000000000e+01,8.037735700000000350e+01
2.900000000000000000e+01,8.137741099999999506e+01
3.000000000000000000e+01,8.235496500000000708e+01
3.100000000000000000e+01,8.331124099999999544e+01
3.200000000000000000e+01,8.424739800000000400e+01
3.300000000000000000e+01,8.516423000000000343e+01
3.400000000000000000e+01,8.606280499999999734e+01
3.500000000000000000e+01,8.694407699999999295e+01
3.600000000000000000e+01,8.780822799999999972e+01
3.700000000000000000e+01,8.865655499999999734e+01
3.800000000000000000e+01,8.948972299999999791e+01
3.900000000000000000e+01,9.030815099999999518e+01
4.000000000000000000e+01,9.111243399999999326e+01
4.100000000000000000e+01,9.190325199999999484e+01
4.200000000000000000e+01,9.268096199999999385e+01
4.300000000000000000e+01,9.344608300000000156e+01
4.400000000000000000e+01,9.419918099999999583e+01
4.500000000000000000e+01,9.494055899999999326e+01
4.600000000000000000e+01,9.567064700000000244e+01
4.700000000000000000e+01,9.638994599999999480e+01
4.800000000000000000e+01,9.709870100000000548e+01
4.900000000000000000e+01,9.779741699999999582e+01
5.000000000000000000e+01,9.848652599999999779e+01
5.100000000000000000e+01,9.916605400000000259e+01
5.200000000000000000e+01,9.983632699999999716e+01
5.300000000000000000e+01,1.004978899999999982e+02
5.400000000000000000e+01,1.011508699999999976e+02
5.500000000000000000e+01,1.017954500000000024e+02
5.600000000000000000e+01,1.024320699999999960e+02
5.700000000000000000e+01,1.030608699999999942e+02
5.800000000000000000e+01,1.036821099999999944e+02
5.900000000000000000e+01,1.042960199999999986e+02
6.000000000000000000e+01,1.049027899999999960e+02
6.100000000000000000e+01,1.055024899999999946e+02
6.200000000000000000e+01,1.060957899999999938e+02
6.300000000000000000e+01,1.066822999999999979e+02
6.400000000000000000e+01,1.072626999999999953e+02
6.500000000000000000e+01,1.078367999999999967e+02
6.600000000000000000e+01,1.084050900000000013e+02
6.700000000000000000e+01,1.089673200000000008e+02
6.800000000000000000e+01,1.095242099999999965e+02
6.900000000000000000e+01,1.100754799999999989e+02
7.000000000000000000e+01,1.106213800000000020e+02
7.100000000000000000e+01,1.111622299999999939e+02
7.200000000000000000e+01,1.116977700000000056e+02
7.300000000000000000e+01,1.122285899999999970e+02
7.400000000000000000e+01,1.127547100000000029e+02
7.500000000000000000e+01,1.132759599999999978e+02
7.600000000000000000e+01,1.137928500000000014e+02
7.700000000000000000e+01,1.143054000000000059e+02
7.800000000000000000e+01,1.148134199999999936e+02
7.900000000000000000e+01,1.153174300000000017e+02
8.000000000000000000e+01,1.158174300000000017e+02
8.100000000000000000e+01,1.163133499999999998e+02
8.200000000000000000e+01,1.168053500000000042e+02
8.300000000000000000e+01,1.172937699999999950e+02
8.400000000000000000e+01,1.177785300000000035e+02
8.500000000000000000e+01,1.182595599999999934e+02
8.600000000000000000e+01,1.187371200000000044e+02
8.700000000000000000e+01,1.192113700000000023e+02
8.800000000000000000e+01,1.196823299999999932e+02
8.900000000000000000e+01,1.201499299999999977e+02
9.000000000000000000e+01,1.206144100000000066e+02
9.100000000000000000e+01,1.210757899999999978e+02
9.200000000000000000e+01,1.215343299999999971e+02
9.300000000000000000e+01,1.219898900000000026e+02
9.400000000000000000e+01,1.224424099999999953e+02
9.500000000000000000e+01,1.228923000000000059e+02
9.600000000000000000e+01,1.233394700000000057e+02
9.700000000000000000e+01,1.237839799999999997e+02
9.800000000000000000e+01,1.242258499999999941e+02
9.900000000000000000e+01,1.246652100000000019e+02
1.000000000000000000e+02,1.251019100000000037e+02
1.010000000000000000e+02,1.255363799999999941e+02
1.020000000000000000e+02,1.259684400000000011e+02
1.030000000000000000e+02,1.263981899999999996e+02
1.040000000000000000e+02,1.268257200000000040e+02
1.050000000000000000e+02,1.272510199999999969e+02
1.060000000000000000e+02,1.276740900000000067e+02
1.070000000000000000e+02,1.280950599999999895e+02
1.080000000000000000e+02,1.285139599999999973e+02
1.090000000000000000e+02,1.289308200000000113e+02
1.100000000000000000e+02,1.293454900000000123e+02
1.110000000000000000e+02,1.297583799999999883e+02
1.120000000000000000e+02,1.301693600000000117e+02
1.130000000000000000e+02,1.305785400000000038e+02
1.140000000000000000e+02,1.309858600000000024e+02
1.150000000000000000e+02,1.313913599999999917e+02
1.160000000000000000e+02,1.317951199999999972e+02
1.170000000000000000e+02,1.321971000000000060e+02
1.180000000000000000e+02,1.325973700000000122e+02
1.190000000000000000e+02,1.329960299999999904e+02
1.200000000000000000e+02,1.333930499999999881e+02
1.210000000000000000e+02,1.337884699999999896e+02
1.220000000000000000e+02,1.341823400000000106e+02
1.230000000000000000e+02,1.345746599999999944e+02
1.240000000000000000e+02,1.349654500000000041e+02
1.250000000000000000e+02,1.353548099999999863e+02
1.260000000000000000e+02,1.357426800000000071e+02
1.270000000000000000e+02,1.361290899999999908e+02
1.280000000000000000e+02,1.365141600000000039e+02
1.290000000000000000e+02,1.368978099999999927e+02
1.300000000000000000e+02,1.372800799999999981e+02
1.310000000000000000e+02,1.376610599999999920e+02
1.320000000000000000e+02,1.380406600000000026e+02
1.330000000000000000e+02,1.384189299999999889e+02
1.340000000000000000e+02,1.387960500000000081e+02
1.350000000000000000e+02,1.391717800000000125e+02
1.360000000000000000e+02,1.395462799999999959e+02
1.370000000000000000e+02,1.399196000000000026e+02
1.380000000000000000e+02,1.402916999999999916e+02
1.390000000000000000e+02,1.406626100000000008e+02
1.400000000000000000e+02,1.410324099999999987e+02
1.410000000000000000e+02,1.414010299999999916e+02
1.420000000000000000e+02,1.417684900000000141e+02
1.430000000000000000e+02,1.421348999999999876e+02
1.440000000000000000e+02,1.425001800000000003e+02
1.450000000000000000e+02,1.428643500000000017e+02
1.460000000000000000e+02,1.432274899999999889e+02
1.470000000000000000e+02,1.435895500000000027e+02
1.480000000000000000e+02,1.439505299999999863e+02
1.490000000000000000e+02,1.443106200000000001e+02
1.500000000000000000e+02,1.446696799999999996e+02
1.510000000000000000e+02,1.450276299999999878e+02
1.520000000000000000e+02,1.453846299999999871e+02
1.530000000000000000e+02,1.457405899999999974e+02
1.540000000000000000e+02,1.460955500000000029e+02
1.550000000000000000e+02,1.464496300000000133e+02
1.560000000000000000e+02,1.468026999999999873e+02
1.570000000000000000e+02,1.471548300000000040e+02
1.580000000000000000e+02,1.475061599999999942e+02
1.590000000000000000e+02,1.478564499999999953e+02
1.600000000000000000e+02,1.482058100000000138e+02
1.610000000000000000e+02,1.485543700000000058e+02
1.620000000000000000e+02,1.489020199999999932e+02
1.630000000000000000e+02,1.492488899999999887e+02
1.640000000000000000e+02,1.495948500000000081e+02
1.650000000000000000e+02,1.499398700000000133e+02
1.660000000000000000e+02,1.502839800000000139e+02
1.670000000000000000e+02,1.506273700000000133e+02
1.680000000000000000e+02,1.509697700000000111e+02
1.690000000000000000e+02,1.513113400000000013e+02
1.700000000000000000e+02,1.516521299999999997e+02
1.710000000000000000e+02,1.519920700000000124e+02
1.720000000000000000e+02,1.523312799999999925e+02
1.730000000000000000e+02,1.526696599999999933e+02
1.740000000000000000e+02,1.530073099999999897e+02
1.750000000000000000e+02,1.533440400000000068e+02
1.760000000000000000e+02,1.536800200000000132e+02
1.770000000000000000e+02,1.540151700000000119e+02
1.780000000000000000e+02,1.543495200000000125e+02
1.790000000000000000e+02,1.546831400000000087e+02
1.800000000000000000e+02,1.550161600000000135e+02
1.810000000000000000e+02,1.553482500000000073e+02
1.820000000000000000e+02,1.556795999999999935e+02
1.830000000000000000e+02,1.560101600000000133e+02
1.840000000000000000e+02,1.563400100000000066e+02
1.850000000000000000e+02,1.566691700000000083e+02
1.860000000000000000e+02,1.569976200000000119e+02
1.870000000000000000e+02,1.573253300000000081e+02
1.880000000000000000e+02,1.576523099999999999e+02
1.890000000000000000e+02,1.579784899999999936e+02
1.900000000000000000e+02,1.583039200000000051e+02
1.910000000000000000e+02,1.586286900000000060e+02
1.920000000000000000e+02,1.589528400000000090e+02
1.930000000000000000e+02,1.592761700000000076e+02
1.940000000000000000e+02,1.595989399999999989e+02
1.950000000000000000e+02,1.599208800000000110e+02
1.960000000000000000e+02,1.602420799999999872e+02
1.970000000000000000e+02,1.605627000000000066e+02
1.980000000000000000e+02,1.608824799999999868e+02
1.990000000000000000e+02,1.612016000000000133e+02
2.000000000000000000e+02,1.615202299999999980e+02
2.010000000000000000e+02,1.618380999999999972e+02
2.020000000000000000e+02,1.621552299999999889e+02
2.030000000000000000e+02,1.624717899999999986e+02
2.040000000000000000e+02,1.627875099999999975e+02
2.050000000000000000e+02,1.631025799999999890e+02
2.060000000000000000e+02,1.634171800000000019e+02
2.070000000000000000e+02,1.637310600000000136e+02
2.080000000000000000e+02,1.640441600000000051e+02
2.090000000000000000e+02,1.643566700000000083e+02
2.100000000000000000e+02,1.646684899999999914e+02
2.110000000000000000e+02,1.649797199999999862e+02
2.120000000000000000e+02,1.652903300000000115e+02
2.130000000000000000e+02,1.656001899999999978e+02
2.140000000000000000e+02,1.659093900000000019e+02
2.150000000000000000e+02,1.662179899999999861e+02
2.160000000000000000e+02,1.665260199999999884e+02
2.170000000000000000e+02,1.668333900000000085e+02
2.180000000000000000e+02,1.671400800000000118e+02
2.190000000000000000e+02,1.674461400000000140e+02
2.200000000000000000e+02,1.677515400000000056e+02
2.210000000000000000e+02,1.680565200000000061e+02
2.220000000000000000e+02,1.683606599999999958e+02
2.230000000000000000e+02,1.686641400000000033e+02
2.240000000000000000e+02,1.689670900000000131e+02
2.250000000000000000e+02,1.692694500000000062e+02
2.260000000000000000e+02,1.695711799999999982e+02
2.270000000000000000e+02,1.698722799999999893e+02
2.280000000000000000e+02,1.701726800000000139e+02
2.290000000000000000e+02,1.704724600000000123e+02
2.300000000000000000e+02,1.707717900000000100e+02
2.310000000000000000e+02,1.710704800000000034e+02
2.320000000000000000e+02,1.713684700000000021e+02
2.330000000000000000e+02,1.716658799999999871e+02
2.340000000000000000e+02,1.719626900000000091e+02
2.350000000000000000e+02,1.722589299999999923e+02
2.360000000000000000e+02,1.725546099999999967e+02
2.370000000000000000e+02,1.728495900000000063e+02
2.380000000000000000e+02,1.731440000000000055e+02
2.390000000000000000e+02,1.734377399999999909e+02
2.400000000000000000e+02,1.737310300000000041e+02
2.410000000000000000e+02,1.740237300000000005e+02
2.420000000000000000e+02,1.743157300000000021e+02
2.430000000000000000e+02,1.746071200000000090e+02
2.440000000000000000e+02,1.748980099999999993e+02
2.450000000000000000e+02,1.751883699999999919e+02
2.460000000000000000e+02,1.754780000000000086e+02
2.470000000000000000e+02,1.757670300000000054e+02
2.480000000000000000e+02,1.760556300000000078e+02
2.490000000000000000e+02,1.763436100000000124e+02
2.500000000000000000e+02,1.766308899999999937e+02
2.510000000000000000e+02,1.769176500000000090e+02
2.520000000000000000e+02,1.772038900000000012e+02
2.530000000000000000e+02,1.774895500000000084e+02
2.540000000000000000e+02,1.777745799999999861e+02
2.550000000000000000e+02,1.780589899999999943e+02
2.560000000000000000e+02,1.783429600000000050e+02
2.570000000000000000e+02,1.786262499999999989e+02
2.580000000000000000e+02,1.789089800000000139e+02
2.590000000000000000e+02,1.791911200000000122e+02
2.600000000000000000e+02,1.794728700000000003e+02
2.610000000000000000e+02,1.797538499999999999e+02
2.620000000000000000e+02,1.800342899999999986e+02
2.630000000000000000e+02,1.803143900000000031e+02
2.640000000000000000e+02,1.805937000000000126e+02
2.650000000000000000e+02,1.808724400000000117e+02
2.660000000000000000e+02,1.811507400000000132e+02
2.670000000000000000e+02,1.814284700000000043e+02
2.680000000000000000e+02,1.817055400000000134e+02
2.690000000000000000e+02,1.819820899999999995e+02
2.700000000000000000e+02,1.822581000000000131e+02
2.710000000000000000e+02,1.825336000000000070e+02
2.720000000000000000e+02,1.828085000000000093e+02
2.730000000000000000e+02,1.830828400000000045e+02
2.740000000000000000e+02,1.833566600000000051e+02
2.750000000000000000e+02,1.836299699999999859e+02
2.760000000000000000e+02,1.839026900000000069e+02
2.770000000000000000e+02,1.841747400000000141e+02
2.780000000000000000e+02,1.844464600000000019e+02
2.790000000000000000e+02,1.847175900000000013e+02
2.800000000000000000e+02,1.849880400000000122e+02
2.810000000000000000e+02,1.852581199999999910e+02
2.820000000000000000e+02,1.855275599999999940e+02
2.830000000000000000e+02,1.857964800000000025e+02
2.840000000000000000e+02,1.860647899999999879e+02
2.850000000000000000e+02,1.863326700000000073e+02
2.860000000000000000e+02,1.866000099999999975e+02
2.870000000000000000e+02,1.868667100000000119e+02
2.880000000000000000e+02,1.871329800000000034e+02
2.890000000000000000e+02,1.873986800000000130e+02
2.900000000000000000e+02,1.876638299999999902e+02
2.910000000000000000e+02,1.879285099999999886e+02
2.920000000000000000e+02,1.881926599999999894e+02
2.930000000000000000e+02,1.884562200000000018e+02
2.940000000000000000e+02,1.887193100000000072e+02
2.950000000000000000e+02,1.889818400000000054e+02
2.960000000000000000e+02,1.892438400000000058e+02
2.970000000000000000e+02,1.895053699999999992e+02
2.980000000000000000e+02,1.897663300000000106e+02
2.990000000000000000e+02,1.900267499999999927e+02
3.000000000000000000e+02,1.902866500000000087e+02
3.010000000000000000e+02,1.905461099999999988e+02
3.020000000000000000e+02,1.908049900000000036e+02
3.030000000000000000e+02,1.910633400000000108e+02
3.040000000000000000e+02,1.913212599999999952e+02
3.050000000000000000e+02,1.915785700000000134e+02
3.060000000000000000e+02,1.918354199999999992e+02
3.070000000000000000e+02,1.920917499999999905e+02
3.080000000000000000e+02,1.923475799999999936e+02
3.090000000000000000e+02,1.926029100000000085e+02
3.100000000000000000e+02,1.928577099999999973e+02
3.110000000000000000e+02,1.931119999999999948e+02
3.120000000000000000e+02,1.933658100000000104e+02
3.130000000000000000e+02,1.936191100000000063e+02
3.140000000000000000e+02,1.938718900000000076e+02
3.150000000000000000e+02,1.941241899999999987e+02
3.160000000000000000e+02,1.943759900000000016e+02
3.170000000000000000e+02,1.946272600000000068e+02
3.180000000000000000e+02,1.948781400000000019e+02
3.190000000000000000e+02,1.951283699999999897e+02
3.200000000000000000e+02,1.953781999999999925e+02
3.210000000000000000e+02,1.956274899999999946e+02
3.220000000000000000e+02,1.958762499999999989e+02
3.230000000000000000e+02,1.961246299999999962e+02
3.240000000000000000e+02,1.963724499999999864e+02
3.250000000000000000e+02,1.966197699999999884e+02
3.260000000000000000e+02,1.968666699999999992e+02
3.270000000000000000e+02,1.971130400000000122e+02
3.280000000000000000e+02,1.973589200000000119e+02
3.290000000000000000e+02,1.976042899999999918e+02
3.300000000000000000e+02,1.978492300000000057e+02
3.310000000000000000e+02,1.980936399999999935e+02
3.320000000000000000e+02,1.983376499999999965e+02
3.330000000000000000e+02,1.985810999999999922e+02
3.340000000000000000e+02,1.988240800000000092e+02
3.350000000000000000e+02,1.990666200000000003e+02
3.360000000000000000e+02,1.993086900000000128e+02
3.370000000000000000e+02,1.995501700000000085e+02
3.380000000000000000e+02,1.997913100000000099e+02
3.390000000000000000e+02,2.000319499999999948e+02
3.400000000000000000e+02,2.002720199999999977e+02
3.410000000000000000e+02,2.005117799999999875e+02
3.420000000000000000e+02,2.007509300000000110e+02
3.430000000000000000e+02,2.009896999999999991e+02
3.440000000000000000e+02,2.012280100000000118e+02
3.450000000000000000e+02,2.014657400000000109e+02
3.460000000000000000e+02,2.017031599999999969e+02
3.470000000000000000e+02,2.019399699999999882e+02
3.480000000000000000e+02,2.021764200000000073e+02
3.490000000000000000e+02,2.024123700000000099e+02
3.500000000000000000e+02,2.026478299999999990e+02
3.510000000000000000e+02,2.028829299999999876e+02
3.520000000000000000e+02,2.031174200000000098e+02
3.530000000000000000e+02,2.033515199999999936e+02
3.540000000000000000e+02,2.035852500000000020e+02
3.550000000000000000e+02,2.038183699999999874e+02
3.560000000000000000e+02,2.040512400000000071e+02
3.570000000000000000e+02,2.042834799999999973e+02
3.580000000000000000e+02,2.045152699999999868e+02
3.590000000000000000e+02,2.047467800000000011e+02
3.600000000000000000e+02,2.049776300000000049e+02
3.610000000000000000e+02,2.052081799999999987e+02
3.620000000000000000e+02,2.054381999999999948e+02
3.630000000000000000e+02,2.056677599999999870e+02
3.640000000000000000e+02,2.058968700000000069e+02
3.650000000000000000e+02,2.061255800000000136e+02
3.660000000000000000e+02,2.063539000000000101e+02
3.670000000000000000e+02,2.065816299999999899e+02
3.680000000000000000e+02,2.068091000000000008e+02
3.690000000000000000e+02,2.070359599999999887e+02
3.700000000000000000e+02,2.072624500000000012e+02
3.710000000000000000e+02,2.074885299999999972e+02
3.720000000000000000e+02,2.077141000000000020e+02
3.730000000000000000e+02,2.079393000000000029e+02
3.740000000000000000e+02,2.081639900000000125e+02
3.750000000000000000e+02,2.083882399999999961e+02
3.760000000000000000e+02,2.086120799999999917e+02
3.770000000000000000e+02,2.088355300000000057e+02
3.780000000000000000e+02,2.090584599999999966e+02
3.790000000000000000e+02,2.092809399999999869e+02
3.800000000000000000e+02,2.095031400000000019e+02
3.810000000000000000e+02,2.097247500000000002e+02
3.820000000000000000e+02,2.099459500000000105e+02
3.830000000000000000e+02,2.101667600000000107e+02
3.840000000000000000e+02,2.103871300000000133e+02
3.850000000000000000e+02,2.106070300000000088e+02
3.860000000000000000e+02,2.108265700000000038e+02
3.870000000000000000e+02,2.110456200000000138e+02
3.880000000000000000e+02,2.112642099999999914e+02
3.890000000000000000e+02,2.114824399999999969e+02
3.900000000000000000e+02,2.117001600000000110e+02
3.910000000000000000e+02,2.119174999999999898e+02
3.920000000000000000e+02,2.121344100000000026e+02
3.930000000000000000e+02,2.123508899999999926e+02
3.940000000000000000e+02,2.125669100000000071e+02
3.950000000000000000e+02,2.127825499999999863e+02
3.960000000000000000e+02,2.129977100000000121e+02
3.970000000000000000e+02,2.132124499999999898e+02
3.980000000000000000e+02,2.134267299999999921e+02
3.990000000000000000e+02,2.136406399999999906e+02
4.000000000000000000e+02,2.138540999999999883e+02
4.010000000000000000e+02,2.140671700000000044e+02
4.020000000000000000e+02,2.142797700000000134e+02
4.030000000000000000e+02,2.144919099999999901e+02
4.040000000000000000e+02,2.147036999999999978e+02
4.050000000000000000e+02,2.149150099999999952e+02
4.060000000000000000e+02,2.151258899999999983e+02
4.070000000000000000e+02,2.153363600000000133e+02
4.080000000000000000e+02,2.155463900000000024e+02
4.090000000000000000e+02,2.157558899999999937e+02
4.100000000000000000e+02,2.159651499999999942e+02
4.110000000000000000e+02,2.161737799999999936e+02
4.120000000000000000e+02,2.163821299999999894e+02
4.130000000000000000e+02,2.165899799999999971e+02
4.140000000000000000e+02,2.167974499999999978e+02
4.150000000000000000e+02,2.170044599999999946e+02
4.160000000000000000e+02,2.172110600000000034e+02
4.170000000000000000e+02,2.174172199999999862e+02
4.180000000000000000e+02,2.176229099999999903e+02
4.190000000000000000e+02,2.178282299999999907e+02
4.200000000000000000e+02,2.180330800000000124e+02
4.210000000000000000e+02,2.182375000000000114e+02
4.220000000000000000e+02,2.184414800000000128e+02
4.230000000000000000e+02,2.186450299999999913e+02
4.240000000000000000e+02,2.188481299999999976e+02
4.250000000000000000e+02,2.190508399999999938e+02
4.260000000000000000e+02,2.192530800000000113e+02
4.270000000000000000e+02,2.194549000000000092e+02
4.280000000000000000e+02,2.196562999999999874e+02
4.290000000000000000e+02,2.198572499999999934e+02
4.300000000000000000e+02,2.200576599999999985e+02
4.310000000000000000e+02,2.202578300000000127e+02
4.320000000000000000e+02,2.204574000000000069e+02
4.330000000000000000e+02,2.206566500000000133e+02
4.340000000000000000e+02,2.208553599999999904e+02
4.350000000000000000e+02,2.210537400000000048e+02
4.360000000000000000e+02,2.212515400000000056e+02
4.370000000000000000e+02,2.214490700000000061e+02
4.380000000000000000e+02,2.216459999999999866e+02
4.390000000000000000e+02,2.218425799999999981e+02
4.400000000000000000e+02,2.220386699999999962e+02
4.410000000000000000e+02,2.222344099999999969e+02
4.420000000000000000e+02,2.224295700000000124e+02
4.430000000000000000e+02,2.226244800000000055e+02
4.440000000000000000e+02,2.228187599999999975e+02
4.450000000000000000e+02,2.230127300000000048e+02
4.460000000000000000e+02,2.232061799999999891e+02
4.470000000000000000e+02,2.233992599999999982e+02
4.480000000000000000e+02,2.235917800000000000e+02
4.490000000000000000e+02,2.237840099999999950e+02
4.500000000000000000e+02,2.239756299999999953e+02
4.510000000000000000e+02,2.241669500000000141e+02
4.520000000000000000e+02,2.243577699999999879e+02
4.530000000000000000e+02,2.245481599999999958e+02
4.540000000000000000e+02,2.247380499999999870e+02
4.550000000000000000e+02,2.249275800000000061e+02
4.560000000000000000e+02,2.251165900000000022e+02
4.570000000000000000e+02,2.253051800000000071e+02
4.580000000000000000e+02,2.254933800000000019e+02
4.590000000000000000e+02,2.256810199999999895e+02
4.600000000000000000e+02,2.258683200000000113e+02
4.610000000000000000e+02,2.260550800000000038e+02
4.620000000000000000e+02,2.262415200000000084e+02
4.630000000000000000e+02,2.264273399999999867e+02
4.640000000000000000e+02,2.266129200000000026e+02
4.650000000000000000e+02,2.267978699999999890e+02
4.660000000000000000e+02,2.269824999999999875e+02
4.670000000000000000e+02,2.271665800000000104e+02
4.680000000000000000e+02,2.273503300000000138e+02
4.690000000000000000e+02,2.275334799999999973e+02
4.700000000000000000e+02,2.277163700000000119e+02
4.710000000000000000e+02,2.278986400000000003e+02
4.720000000000000000e+02,2.280806000000000040e+02
4.730000000000000000e+02,2.282621300000000133e+02
4.740000000000000000e+02,2.284430800000000090e+02
4.750000000000000000e+02,2.286237199999999916e+02
4.760000000000000000e+02,2.288038300000000049e+02
4.770000000000000000e+02,2.289835799999999892e+02
4.780000000000000000e+02,2.291627300000000105e+02
4.790000000000000000e+02,2.293416300000000092e+02
4.800000000000000000e+02,2.295199100000000101e+02
4.810000000000000000e+02,2.296978799999999978e+02
4.820000000000000000e+02,2.298753100000000131e+02
4.830000000000000000e+02,2.300523799999999994e+02
4.840000000000000000e+02,2.302289900000000102e+02
4.850000000000000000e+02,2.304051100000000076e+02
4.860000000000000000e+02,2.305808700000000044e+02
4.870000000000000000e+02,2.307560400000000129e+02
4.880000000000000000e+02,2.309309700000000021e+02
4.890000000000000000e+02,2.311052899999999966e+02
4.900000000000000000e+02,2.312792800000000000e+02
4.910000000000000000e+02,2.314527600000000120e+02
4.920000000000000000e+02,2.316259200000000078e+02
4.930000000000000000e+02,2.317985099999999932e+02
4.940000000000000000e+02,2.319707300000000032e+02
4.950000000000000000e+02,2.321425800000000095e+02
4.960000000000000000e+02,2.323138299999999958e+02
4.970000000000000000e+02,2.324848200000000134e+02
4.980000000000000000e+02,2.326552100000000110e+02
4.990000000000000000e+02,2.328252999999999986e+02
5.000000000000000000e+02,2.329949000000000012e+02
5.010000000000000000e+02,2.331640800000000127e+02
5.020000000000000000e+02,2.333328899999999919e+02
5.030000000000000000e+02,2.335011900000000082e+02
5.040000000000000000e+02,2.336691600000000051e+02
5.050000000000000000e+02,2.338365499999999884e+02
5.060000000000000000e+02,2.340036800000000028e+02
5.070000000000000000e+02,2.341702600000000132e+02
5.080000000000000000e+02,2.343364100000000008e+02
5.090000000000000000e+02,2.345022700000000100e+02
5.100000000000000000e+02,2.346675600000000088e+02
5.110000000000000000e+02,2.348325199999999882e+02
5.120000000000000000e+02,2.349969900000000109e+02
5.130000000000000000e+02,2.351611300000000142e+02
5.140000000000000000e+02,2.353247499999999945e+02
5.150000000000000000e+02,2.354880200000000059e+02
5.160000000000000000e+02,2.356509200000000135e+02
5.170000000000000000e+02,2.358132500000000107e+02
5.180000000000000000e+02,2.359753399999999885e+02
5.190000000000000000e+02,2.361368899999999940e+02
5.200000000000000000e+02,2.362980300000000113e+02
5.210000000000000000e+02,2.364588500000000124e+02
5.220000000000000000e+02,2.366191699999999969e+02
5.230000000000000000e+02,2.367791699999999935e+02
5.240000000000000000e+02,2.369387099999999862e+02
5.250000000000000000e+02,2.370978100000000097e+02
5.260000000000000000e+02,2.372565199999999948e+02
5.270000000000000000e+02,2.374148299999999949e+02
5.280000000000000000e+02,2.375728100000000040e+02
5.290000000000000000e+02,2.377302699999999902e+02
5.300000000000000000e+02,2.378874099999999885e+02
5.310000000000000000e+02,2.380440999999999860e+02
5.320000000000000000e+02,2.382003599999999892e+02
5.330000000000000000e+02,2.383564000000000078e+02
5.340000000000000000e+02,2.385118699999999876e+02
5.350000000000000000e+02,2.386669599999999889e+02
5.360000000000000000e+02,2.388216999999999928e+02
5.370000000000000000e+02,2.389759799999999927e+02
5.380000000000000000e+02,2.391299600000000112e+02
5.390000000000000000e+02,2.392834799999999973e+02
5.400000000000000000e+02,2.394366300000000081e+02
5.410000000000000000e+02,2.395893599999999992e+02
5.420000000000000000e+02,2.397417399999999930e+02
5.430000000000000000e+02,2.398937099999999987e+02
5.440000000000000000e+02,2.400452600000000132e+02
5.450000000000000000e+02,2.401964900000000114e+02
5.460000000000000000e+02,2.403473099999999931e+02
5.470000000000000000e+02,2.404977299999999900e+02
5.480000000000000000e+02,2.406478099999999927e+02
5.490000000000000000e+02,2.407974700000000041e+02
5.500000000000000000e+02,2.409467300000000023e+02
5.510000000000000000e+02,2.410956600000000094e+02
5.520000000000000000e+02,2.412441900000000032e+02
5.530000000000000000e+02,2.413923200000000122e+02
5.540000000000000000e+02,2.415400999999999954e+02
5.550000000000000000e+02,2.416875200000000063e+02
5.560000000000000000e+02,2.418345199999999977e+02
5.570000000000000000e+02,2.419811899999999980e+02
5.580000000000000000e+02,2.421274300000000039e+02
5.590000000000000000e+02,2.422733000000000061e+02
5.600000000000000000e+02,2.424188800000000015e+02
5.610000000000000000e+02,2.425640400000000056e+02
5.620000000000000000e+02,2.427088200000000029e+02
5.630000000000000000e+02,2.428532899999999870e+02
5.640000000000000000e+02,2.429973300000000052e+02
5.650000000000000000e+02,2.431410400000000038e+02
5.660000000000000000e+02,2.432844100000000083e+02
5.670000000000000000e+02,2.434273100000000056e+02
5.680000000000000000e+02,2.435699299999999994e+02
5.690000000000000000e+02,2.437121899999999926e+02
5.700000000000000000e+02,2.438540800000000104e+02
5.710000000000000000e+02,2.439956099999999992e+02
5.720000000000000000e+02,2.441367799999999875e+02
5.730000000000000000e+02,2.442775699999999972e+02
5.740000000000000000e+02,2.444180100000000095e+02
5.750000000000000000e+02,2.445580899999999929e+02
5.760000000000000000e+02,2.446978799999999978e+02
5.770000000000000000e+02,2.448372699999999895e+02
5.780000000000000000e+02,2.449762699999999995e+02
5.790000000000000000e+02,2.451150100000000123e+02
5.800000000000000000e+02,2.452533400000000086e+02
5.810000000000000000e+02,2.453912799999999947e+02
5.820000000000000000e+02,2.455289600000000121e+02
5.830000000000000000e+02,2.456662599999999941e+02
5.840000000000000000e+02,2.458031599999999912e+02
5.850000000000000000e+02,2.459397999999999911e+02
5.860000000000000000e+02,2.460759999999999934e+02
5.870000000000000000e+02,2.462119099999999889e+02
5.880000000000000000e+02,2.463475200000000029e+02
5.890000000000000000e+02,2.464826500000000067e+02
5.900000000000000000e+02,2.466176100000000133e+02
5.910000000000000000e+02,2.467521800000000098e+02
5.920000000000000000e+02,2.468862900000000025e+02
5.930000000000000000e+02,2.470202299999999980e+02
5.940000000000000000e+02,2.471537800000000118e+02
5.950000000000000000e+02,2.472869000000000028e+02
5.960000000000000000e+02,2.474198199999999872e+02
5.970000000000000000e+02,2.475523499999999899e+02
5.980000000000000000e+02,2.476844600000000014e+02
5.990000000000000000e+02,2.478163800000000094e+02