# Time [s], Temperature [C]
1.000000000000000000e+00,2.500000000000000000e+01
2.000000000000000000e+00,2.500000000000000000e+01
3.000000000000000000e+00,2.500000000000000000e+01
4.000000000000000000e+00,2.500000000000000000e+01
5.000000000000000000e+00,2.500000199999999850e+01
6.000000000000000000e+00,2.500001500000000121e+01
7.000000000000000000e+00,2.500007199999999941e+01
8.000000000000000000e+00,2.500027499999999847e+01
9.000000000000000000e+00,2.500086800000000054e+01
1.000000000000000000e+01,2.500236699999999956e+01
1.100000000000000000e+01,2.500570700000000102e+01
1.200000000000000000e+01,2.501238800000000140e+01
1.300000000000000000e+01,2.502460699999999960e+01
1.400000000000000000e+01,2.504529799999999895e+01
1.500000000000000000e+01,2.507814400000000177e+01
1.600000000000000000e+01,2.512748500000000007e+01
1.700000000000000000e+01,2.519820800000000105e+01
1.800000000000000000e+01,2.529560499999999834e+01
1.900000000000000000e+01,2.542521100000000089e+01
2.000000000000000000e+01,2.559262999999999977e+01
2.100000000000000000e+01,2.580340400000000045e+01
2.200000000000000000e+01,2.606293900000000008e+01
2.300000000000000000e+01,2.637628600000000034e+01
2.400000000000000000e+01,2.674815600000000160e+01
2.500000000000000000e+01,2.718274299999999855e+01
2.600000000000000000e+01,2.768372300000000052e+01
2.700000000000000000e+01,2.825425699999999907e+01
2.800000000000000000e+01,2.889686599999999927e+01
2.900000000000000000e+01,2.961360399999999871e+01
3.000000000000000000e+01,3.040602499999999964e+01
3.100000000000000000e+01,3.127507599999999854e+01
3.200000000000000000e+01,3.222133999999999787e+01
3.300000000000000000e+01,3.324518599999999680e+01
3.400000000000000000e+01,3.434632899999999722e+01
3.500000000000000000e+01,3.552441000000000315e+01
3.600000000000000000e+01,3.677872800000000097e+01
3.700000000000000000e+01,3.810836400000000168e+01
3.800000000000000000e+01,3.951227200000000295e+01
3.900000000000000000e+01,4.098905200000000093e+01
4.000000000000000000e+01,4.253733799999999832e+01
4.100000000000000000e+01,4.415565899999999999e+01
4.200000000000000000e+01,4.584229700000000207e+01
4.300000000000000000e+01,4.759580199999999905e+01
4.400000000000000000e+01,4.941407399999999939e+01
4.500000000000000000e+01,5.129567699999999775e+01
4.600000000000000000e+01,5.323849899999999735e+01
4.700000000000000000e+01,5.524091299999999904e+01
4.800000000000000000e+01,5.730084200000000294e+01
4.900000000000000000e+01,5.941632500000000050e+01
5.000000000000000000e+01,6.158577300000000321e+01
5.100000000000000000e+01,6.380683899999999653e+01
5.200000000000000000e+01,6.607816300000000354e+01
5.300000000000000000e+01,6.839759100000000558e+01
5.400000000000000000e+01,7.076335899999999413e+01
5.500000000000000000e+01,7.317356100000000652e+01
5.600000000000000000e+01,7.562651099999999360e+01
5.700000000000000000e+01,7.812033800000000383e+01
5.800000000000000000e+01,8.065318299999999851e+01
5.900000000000000000e+01,8.322508999999999446e+01
6.000000000000000000e+01,8.583209999999999695e+01
6.100000000000000000e+01,8.847322800000000598e+01
6.200000000000000000e+01,9.114664500000000658e+01
6.300000000000000000e+01,9.385093700000000183e+01
6.400000000000000000e+01,9.658486899999999764e+01
6.500000000000000000e+01,9.934695399999999665e+01
6.600000000000000000e+01,1.021359999999999957e+02
6.700000000000000000e+01,1.049505900000000054e+02
6.800000000000000000e+01,1.077895100000000070e+02
6.900000000000000000e+01,1.106517099999999942e+02
7.000000000000000000e+01,1.135360900000000015e+02
7.100000000000000000e+01,1.164412599999999998e+02
7.200000000000000000e+01,1.193659999999999997e+02
7.300000000000000000e+01,1.223090899999999976e+02
7.400000000000000000e+01,1.252696899999999971e+02
7.500000000000000000e+01,1.282462299999999971e+02
7.600000000000000000e+01,1.312381300000000124e+02
7.700000000000000000e+01,1.342436399999999992e+02
7.800000000000000000e+01,1.372623399999999947e+02
7.900000000000000000e+01,1.402923399999999958e+02
8.000000000000000000e+01,1.433331900000000019e+02
8.100000000000000000e+01,1.463832700000000102e+02
8.200000000000000000e+01,1.494420299999999884e+02
8.300000000000000000e+01,1.525084200000000010e+02
8.400000000000000000e+01,1.555808700000000044e+02
8.500000000000000000e+01,1.586590700000000140e+02
8.600000000000000000e+01,1.617421099999999967e+02
8.700000000000000000e+01,1.648284899999999880e+02
8.800000000000000000e+01,1.679179100000000062e+02
8.900000000000000000e+01,1.710095200000000091e+02
9.000000000000000000e+01,1.741023900000000140e+02
9.100000000000000000e+01,1.771950799999999902e+02
9.200000000000000000e+01,1.802875099999999975e+02
9.300000000000000000e+01,1.833787499999999966e+02
9.400000000000000000e+01,1.864673799999999915e+02
9.500000000000000000e+01,1.895533100000000104e+02
9.600000000000000000e+01,1.926357700000000079e+02
9.700000000000000000e+01,1.957135499999999979e+02
9.800000000000000000e+01,1.987861800000000017e+02
9.900000000000000000e+01,2.018531999999999869e+02
1.000000000000000000e+02,2.049134699999999896e+02
1.010000000000000000e+02,2.079667200000000093e+02
1.020000000000000000e+02,2.110122100000000103e+02
1.030000000000000000e+02,2.140488599999999906e+02
1.040000000000000000e+02,2.170761899999999969e+02
1.050000000000000000e+02,2.200933400000000120e+02
1.060000000000000000e+02,2.230996900000000096e+02
1.070000000000000000e+02,2.260945000000000107e+02
1.080000000000000000e+02,2.290772399999999891e+02
1.090000000000000000e+02,2.320470699999999908e+02
1.100000000000000000e+02,2.350032699999999863e+02
1.110000000000000000e+02,2.379478799999999978e+02
1.120000000000000000e+02,2.408760399999999890e+02
1.130000000000000000e+02,2.437887299999999868e+02
1.140000000000000000e+02,2.466859599999999944e+02
1.150000000000000000e+02,2.495678599999999960e+02
1.160000000000000000e+02,2.524336199999999906e+02
1.170000000000000000e+02,2.552820000000000107e+02
1.180000000000000000e+02,2.581112699999999904e+02
1.190000000000000000e+02,2.609198299999999904e+02
1.200000000000000000e+02,2.637064199999999801e+02
1.210000000000000000e+02,2.664700900000000274e+02
1.220000000000000000e+02,2.692096900000000232e+02
1.230000000000000000e+02,2.719239200000000096e+02
1.240000000000000000e+02,2.746114499999999907e+02
1.250000000000000000e+02,2.772707199999999830e+02
1.260000000000000000e+02,2.799005099999999970e+02
1.270000000000000000e+02,2.824989299999999730e+02
1.280000000000000000e+02,2.850643900000000031e+02
1.290000000000000000e+02,2.875950000000000273e+02
1.300000000000000000e+02,2.900885000000000105e+02
1.310000000000000000e+02,2.925432099999999878e+02
1.320000000000000000e+02,2.949567299999999932e+02
1.330000000000000000e+02,2.973268400000000042e+02
1.340000000000000000e+02,2.996510599999999727e+02
1.350000000000000000e+02,3.019273099999999772e+02
1.360000000000000000e+02,3.041531699999999887e+02
1.370000000000000000e+02,3.063260200000000282e+02
1.380000000000000000e+02,3.084440000000000168e+02
1.390000000000000000e+02,3.105045499999999947e+02
1.400000000000000000e+02,3.125057400000000030e+02
1.410000000000000000e+02,3.144458000000000197e+02
1.420000000000000000e+02,3.163232399999999984e+02
1.430000000000000000e+02,3.181366300000000251e+02
1.440000000000000000e+02,3.198852800000000229e+02
1.450000000000000000e+02,3.215686600000000226e+02
1.460000000000000000e+02,3.231865500000000111e+02
1.470000000000000000e+02,3.247396499999999833e+02
1.480000000000000000e+02,3.262288500000000226e+02
1.490000000000000000e+02,3.276555799999999863e+02
1.500000000000000000e+02,3.290216399999999908e+02
1.510000000000000000e+02,3.303298300000000154e+02
1.520000000000000000e+02,3.316173099999999749e+02
1.530000000000000000e+02,3.328482399999999757e+02
1.540000000000000000e+02,3.340323200000000270e+02
1.550000000000000000e+02,3.351687900000000013e+02
1.560000000000000000e+02,3.362560399999999845e+02
1.570000000000000000e+02,3.372984000000000151e+02
1.580000000000000000e+02,3.383030699999999911e+02
1.590000000000000000e+02,3.392769200000000183e+02
1.600000000000000000e+02,3.402259199999999737e+02
1.610000000000000000e+02,3.411550300000000107e+02
1.620000000000000000e+02,3.420685100000000034e+02
1.630000000000000000e+02,3.429707000000000221e+02
1.640000000000000000e+02,3.438647199999999771e+02
1.650000000000000000e+02,3.447541499999999814e+02
1.660000000000000000e+02,3.456416600000000017e+02
1.670000000000000000e+02,3.465303299999999922e+02
1.680000000000000000e+02,3.474230299999999829e+02
1.690000000000000000e+02,3.483220499999999902e+02
1.700000000000000000e+02,3.492298599999999738e+02
1.710000000000000000e+02,3.501489000000000260e+02
1.720000000000000000e+02,3.510809300000000235e+02
1.730000000000000000e+02,3.520287200000000212e+02
1.740000000000000000e+02,3.529938000000000216e+02
1.750000000000000000e+02,3.539787600000000225e+02
1.760000000000000000e+02,3.549851699999999823e+02
1.770000000000000000e+02,3.560150499999999738e+02
1.780000000000000000e+02,3.570706200000000194e+02
1.790000000000000000e+02,3.581538400000000024e+02
1.800000000000000000e+02,3.592665099999999825e+02
1.810000000000000000e+02,3.604118700000000217e+02
1.820000000000000000e+02,3.615918599999999969e+02
1.830000000000000000e+02,3.628093000000000075e+02
1.840000000000000000e+02,3.640663099999999872e+02
1.850000000000000000e+02,3.653664200000000051e+02
1.860000000000000000e+02,3.667138100000000236e+02
1.870000000000000000e+02,3.685381199999999922e+02
1.880000000000000000e+02,3.700939599999999814e+02
1.890000000000000000e+02,3.715959500000000162e+02
1.900000000000000000e+02,3.731500899999999774e+02
1.910000000000000000e+02,3.747803599999999733e+02
1.920000000000000000e+02,3.764976800000000026e+02
1.930000000000000000e+02,3.783065799999999967e+02
1.940000000000000000e+02,3.802127100000000155e+02
1.950000000000000000e+02,3.822224100000000249e+02
1.960000000000000000e+02,3.843440600000000131e+02
1.970000000000000000e+02,3.865872499999999832e+02
1.980000000000000000e+02,3.889619400000000269e+02
1.990000000000000000e+02,3.914824199999999905e+02
2.000000000000000000e+02,3.941604300000000194e+02
2.010000000000000000e+02,3.970115400000000250e+02
2.020000000000000000e+02,4.000507499999999936e+02
2.030000000000000000e+02,4.032938500000000204e+02
2.040000000000000000e+02,4.067555199999999900e+02
2.050000000000000000e+02,4.104476000000000226e+02
2.060000000000000000e+02,4.143770099999999843e+02
2.070000000000000000e+02,4.185438800000000015e+02
2.080000000000000000e+02,4.229382600000000139e+02
2.090000000000000000e+02,4.275350599999999872e+02
2.100000000000000000e+02,4.322916900000000169e+02
2.110000000000000000e+02,4.371521900000000187e+02
2.120000000000000000e+02,4.420518500000000017e+02
2.130000000000000000e+02,4.469251100000000179e+02
2.140000000000000000e+02,4.517146599999999808e+02
2.150000000000000000e+02,4.563814699999999789e+02
2.160000000000000000e+02,4.609058200000000056e+02
2.170000000000000000e+02,4.652816799999999944e+02
2.180000000000000000e+02,4.695148300000000177e+02
2.190000000000000000e+02,4.736150200000000154e+02
2.200000000000000000e+02,4.775953700000000026e+02
2.210000000000000000e+02,4.814673199999999724e+02
2.220000000000000000e+02,4.852416699999999992e+02
2.230000000000000000e+02,4.889291099999999801e+02
2.240000000000000000e+02,4.925366799999999898e+02
2.250000000000000000e+02,4.960705899999999815e+02
2.260000000000000000e+02,4.995358899999999949e+02
2.270000000000000000e+02,5.029377400000000193e+02
2.280000000000000000e+02,5.062794200000000160e+02
2.290000000000000000e+02,5.095643900000000031e+02
2.300000000000000000e+02,5.127959600000000364e+02
2.310000000000000000e+02,5.159763799999999492e+02
2.320000000000000000e+02,5.191080299999999852e+02
2.330000000000000000e+02,5.221933000000000220e+02
2.340000000000000000e+02,5.252341900000000123e+02
2.350000000000000000e+02,5.282318099999999959e+02
2.360000000000000000e+02,5.311882900000000518e+02
2.370000000000000000e+02,5.341052200000000312e+02
2.380000000000000000e+02,5.369840699999999742e+02
2.390000000000000000e+02,5.398261099999999715e+02
2.400000000000000000e+02,5.426322599999999738e+02
2.410000000000000000e+02,5.454038100000000213e+02
2.420000000000000000e+02,5.481416600000000017e+02
2.430000000000000000e+02,5.508470499999999674e+02
2.440000000000000000e+02,5.535206299999999828e+02
2.450000000000000000e+02,5.561633299999999736e+02
2.460000000000000000e+02,5.587761199999999917e+02
2.470000000000000000e+02,5.613591300000000501e+02
2.480000000000000000e+02,5.639139999999999873e+02
2.490000000000000000e+02,5.664406099999999924e+02
2.500000000000000000e+02,5.689400600000000168e+02
2.510000000000000000e+02,5.714129599999999982e+02
2.520000000000000000e+02,5.738592499999999745e+02
2.530000000000000000e+02,5.762801500000000487e+02
2.540000000000000000e+02,5.786760299999999688e+02
2.550000000000000000e+02,5.810473600000000260e+02
2.560000000000000000e+02,5.833945300000000316e+02
2.570000000000000000e+02,5.857179599999999482e+02
2.580000000000000000e+02,5.880182499999999663e+02
2.590000000000000000e+02,5.902957800000000361e+02
2.600000000000000000e+02,5.925506599999999935e+02
2.610000000000000000e+02,5.947834500000000162e+02
2.620000000000000000e+02,5.969945699999999533e+02
2.630000000000000000e+02,5.991842000000000326e+02
2.640000000000000000e+02,6.013529099999999517e+02
2.650000000000000000e+02,6.035006700000000137e+02
2.660000000000000000e+02,6.056279899999999543e+02
2.670000000000000000e+02,6.077352899999999636e+02
2.680000000000000000e+02,6.098225099999999657e+02
2.690000000000000000e+02,6.118900800000000118e+02
2.700000000000000000e+02,6.139383500000000140e+02
2.710000000000000000e+02,6.159675899999999729e+02
2.720000000000000000e+02,6.179780299999999897e+02
2.730000000000000000e+02,6.199697899999999890e+02
2.740000000000000000e+02,6.219431200000000217e+02
2.750000000000000000e+02,6.238983200000000124e+02
2.760000000000000000e+02,6.258355699999999615e+02
2.770000000000000000e+02,6.277549999999999955e+02
2.780000000000000000e+02,6.296571699999999510e+02
2.790000000000000000e+02,6.315417499999999791e+02
2.800000000000000000e+02,6.334091799999999921e+02
2.810000000000000000e+02,6.352595800000000281e+02
2.820000000000000000e+02,6.370933199999999488e+02
2.830000000000000000e+02,6.389105799999999817e+02
2.840000000000000000e+02,6.407113600000000133e+02
2.850000000000000000e+02,6.424960300000000188e+02
2.860000000000000000e+02,6.442645899999999983e+02
2.870000000000000000e+02,6.460170900000000529e+02
2.880000000000000000e+02,6.477539699999999812e+02
2.890000000000000000e+02,6.494754000000000360e+02
2.900000000000000000e+02,6.511812099999999646e+02
2.910000000000000000e+02,6.528719499999999698e+02
2.920000000000000000e+02,6.545474900000000389e+02
2.930000000000000000e+02,6.562082500000000209e+02
2.940000000000000000e+02,6.578540000000000418e+02
2.950000000000000000e+02,6.594851700000000392e+02
2.960000000000000000e+02,6.611018100000000004e+02
2.970000000000000000e+02,6.627041000000000395e+02
2.980000000000000000e+02,6.642921800000000303e+02
2.990000000000000000e+02,6.658659699999999475e+02
3.000000000000000000e+02,6.674258399999999938e+02
3.010000000000000000e+02,6.689719199999999546e+02
3.020000000000000000e+02,6.705044599999999946e+02
3.030000000000000000e+02,6.720233799999999746e+02
3.040000000000000000e+02,6.735286300000000210e+02
3.050000000000000000e+02,6.750206299999999828e+02
3.060000000000000000e+02,6.764995099999999866e+02
3.070000000000000000e+02,6.779652700000000323e+02
3.080000000000000000e+02,6.794179100000000062e+02
3.090000000000000000e+02,6.808579099999999471e+02
3.100000000000000000e+02,6.822851000000000568e+02
3.110000000000000000e+02,6.836997099999999818e+02
3.120000000000000000e+02,6.851018699999999626e+02
3.130000000000000000e+02,6.864916399999999612e+02
3.140000000000000000e+02,6.878691400000000158e+02
3.150000000000000000e+02,6.892345000000000255e+02
3.160000000000000000e+02,6.905877699999999777e+02
3.170000000000000000e+02,6.919293199999999615e+02
3.180000000000000000e+02,6.932586700000000519e+02
3.190000000000000000e+02,6.945764799999999468e+02
3.200000000000000000e+02,6.958827499999999873e+02
3.210000000000000000e+02,6.971772499999999582e+02
3.220000000000000000e+02,6.984605099999999993e+02
3.230000000000000000e+02,6.997324800000000096e+02
3.240000000000000000e+02,7.009933499999999640e+02
3.250000000000000000e+02,7.022430399999999509e+02
3.260000000000000000e+02,7.034817500000000337e+02
3.270000000000000000e+02,7.047094100000000481e+02
3.280000000000000000e+02,7.059262099999999691e+02
3.290000000000000000e+02,7.071323899999999867e+02
3.300000000000000000e+02,7.083278800000000501e+02
3.310000000000000000e+02,7.095129399999999578e+02
3.320000000000000000e+02,7.106874400000000378e+02
3.330000000000000000e+02,7.118515599999999495e+02
3.340000000000000000e+02,7.130054900000000089e+02
3.350000000000000000e+02,7.141494099999999889e+02
3.360000000000000000e+02,7.152833299999999781e+02
3.370000000000000000e+02,7.164071699999999510e+02
3.380000000000000000e+02,7.175210600000000341e+02
3.390000000000000000e+02,7.186251800000000003e+02
3.400000000000000000e+02,7.197194799999999759e+02
3.410000000000000000e+02,7.208043199999999615e+02
3.420000000000000000e+02,7.218795199999999568e+02
3.430000000000000000e+02,7.229451900000000251e+02
3.440000000000000000e+02,7.240016500000000406e+02
3.450000000000000000e+02,7.250487699999999904e+02
3.460000000000000000e+02,7.260865499999999884e+02
3.470000000000000000e+02,7.271153600000000097e+02
3.480000000000000000e+02,7.281350099999999657e+02
3.490000000000000000e+02,7.291458099999999831e+02
3.500000000000000000e+02,7.301475799999999481e+02
3.510000000000000000e+02,7.311406899999999496e+02
3.520000000000000000e+02,7.321248799999999619e+02
3.530000000000000000e+02,7.331005900000000111e+02
3.540000000000000000e+02,7.340674999999999955e+02
3.550000000000000000e+02,7.350260600000000295e+02
3.560000000000000000e+02,7.359760099999999738e+02
3.570000000000000000e+02,7.369177200000000312e+02
3.580000000000000000e+02,7.378512600000000248e+02
3.590000000000000000e+02,7.387764300000000048e+02
3.600000000000000000e+02,7.396934800000000223e+02
3.610000000000000000e+02,7.406025399999999763e+02
3.620000000000000000e+02,7.415034200000000055e+02
3.630000000000000000e+02,7.423964200000000346e+02
3.640000000000000000e+02,7.432815600000000131e+02
3.650000000000000000e+02,7.441590599999999540e+02
3.660000000000000000e+02,7.450287499999999454e+02
3.670000000000000000e+02,7.458907500000000255e+02
3.680000000000000000e+02,7.467451200000000426e+02
3.690000000000000000e+02,7.475919800000000350e+02
3.700000000000000000e+02,7.484314600000000155e+02
3.710000000000000000e+02,7.492634900000000471e+02
3.720000000000000000e+02,7.500882599999999911e+02
3.730000000000000000e+02,7.509057000000000244e+02
3.740000000000000000e+02,7.517160599999999704e+02
3.750000000000000000e+02,7.525191700000000310e+02
3.760000000000000000e+02,7.533152499999999918e+02
3.770000000000000000e+02,7.541041900000000169e+02
3.780000000000000000e+02,7.548863499999999931e+02
3.790000000000000000e+02,7.556615600000000086e+02
3.800000000000000000e+02,7.564299899999999752e+02
3.810000000000000000e+02,7.571916499999999814e+02
3.820000000000000000e+02,7.579465300000000525e+02
3.830000000000000000e+02,7.586947000000000116e+02
3.840000000000000000e+02,7.594363399999999729e+02
3.850000000000000000e+02,7.601715100000000120e+02
3.860000000000000000e+02,7.609002100000000155e+02
3.870000000000000000e+02,7.616224399999999832e+02
3.880000000000000000e+02,7.623382599999999911e+02
3.890000000000000000e+02,7.630478500000000395e+02
3.900000000000000000e+02,7.637511600000000271e+02
3.910000000000000000e+02,7.644482400000000553e+02
3.920000000000000000e+02,7.651392200000000230e+02
3.930000000000000000e+02,7.658241000000000440e+02
3.940000000000000000e+02,7.665029299999999921e+02
3.950000000000000000e+02,7.671757800000000316e+02
3.960000000000000000e+02,7.678427100000000110e+02
3.970000000000000000e+02,7.685037800000000061e+02
3.980000000000000000e+02,7.691589999999999918e+02
3.990000000000000000e+02,7.698084099999999808e+02
4.000000000000000000e+02,7.704521499999999605e+02
4.010000000000000000e+02,7.710902700000000323e+02
4.020000000000000000e+02,7.717226600000000190e+02
4.030000000000000000e+02,7.723494899999999461e+02
4.040000000000000000e+02,7.729708299999999781e+02
4.050000000000000000e+02,7.735866700000000264e+02
4.060000000000000000e+02,7.741971399999999903e+02
4.070000000000000000e+02,7.748021899999999960e+02
4.080000000000000000e+02,7.754019200000000183e+02
4.090000000000000000e+02,7.759962799999999561e+02
4.100000000000000000e+02,7.765854500000000371e+02
4.110000000000000000e+02,7.771694300000000339e+02
4.120000000000000000e+02,7.777482899999999972e+02
4.130000000000000000e+02,7.783219599999999900e+02
4.140000000000000000e+02,7.788906200000000126e+02
4.150000000000000000e+02,7.794542800000000398e+02
4.160000000000000000e+02,7.800128799999999956e+02
4.170000000000000000e+02,7.805666499999999814e+02
4.180000000000000000e+02,7.811155400000000100e+02
4.190000000000000000e+02,7.816595499999999674e+02
4.200000000000000000e+02,7.821987299999999550e+02
4.210000000000000000e+02,7.827332199999999602e+02
4.220000000000000000e+02,7.832629399999999578e+02
4.230000000000000000e+02,7.837879599999999982e+02
4.240000000000000000e+02,7.843084099999999808e+02
4.250000000000000000e+02,7.848242199999999684e+02
4.260000000000000000e+02,7.853355099999999993e+02
4.270000000000000000e+02,7.858422900000000482e+02
4.280000000000000000e+02,7.863445400000000518e+02
4.290000000000000000e+02,7.868424099999999726e+02
4.300000000000000000e+02,7.873358799999999746e+02
4.310000000000000000e+02,7.878250100000000202e+02
4.320000000000000000e+02,7.883097500000000082e+02
4.330000000000000000e+02,7.887902199999999766e+02
4.340000000000000000e+02,7.892664800000000014e+02
4.350000000000000000e+02,7.897385900000000447e+02
4.360000000000000000e+02,7.902064800000000560e+02
4.370000000000000000e+02,7.906702900000000227e+02
4.380000000000000000e+02,7.911299400000000333e+02
4.390000000000000000e+02,7.915855699999999615e+02
4.400000000000000000e+02,7.920371099999999842e+02
4.410000000000000000e+02,7.924846800000000258e+02
4.420000000000000000e+02,7.929283400000000483e+02
4.430000000000000000e+02,7.933680399999999509e+02
4.440000000000000000e+02,7.938038900000000240e+02
4.450000000000000000e+02,7.942359000000000151e+02
4.460000000000000000e+02,7.946640599999999495e+02
4.470000000000000000e+02,7.950884399999999914e+02
4.480000000000000000e+02,7.955090900000000147e+02
4.490000000000000000e+02,7.959260299999999688e+02
4.500000000000000000e+02,7.963392300000000432e+02
4.510000000000000000e+02,7.967488399999999729e+02
4.520000000000000000e+02,7.971547900000000482e+02
4.530000000000000000e+02,7.975571899999999914e+02
4.540000000000000000e+02,7.979559900000000425e+02
4.550000000000000000e+02,7.983513199999999870e+02
4.560000000000000000e+02,7.987431599999999889e+02
4.570000000000000000e+02,7.991314700000000357e+02
4.580000000000000000e+02,7.995163599999999633e+02
4.590000000000000000e+02,7.998978899999999612e+02
4.600000000000000000e+02,8.002759999999999536e+02
4.610000000000000000e+02,8.006508199999999533e+02
4.620000000000000000e+02,8.010222800000000234e+02
4.630000000000000000e+02,8.013904999999999745e+02
4.640000000000000000e+02,8.017554900000000089e+02
4.650000000000000000e+02,8.021171900000000505e+02
4.660000000000000000e+02,8.024757100000000491e+02
4.670000000000000000e+02,8.028311200000000554e+02
4.680000000000000000e+02,8.031832900000000564e+02
4.690000000000000000e+02,8.035323499999999513e+02
4.700000000000000000e+02,8.038783600000000433e+02
4.710000000000000000e+02,8.042213100000000168e+02
4.720000000000000000e+02,8.045612200000000485e+02
4.730000000000000000e+02,8.048981300000000374e+02
4.740000000000000000e+02,8.052321200000000090e+02
4.750000000000000000e+02,8.055630499999999756e+02
4.760000000000000000e+02,8.058910499999999502e+02
4.770000000000000000e+02,8.062162499999999454e+02
4.780000000000000000e+02,8.065385099999999738e+02
4.790000000000000000e+02,8.068579700000000230e+02
4.800000000000000000e+02,8.071745600000000422e+02
4.810000000000000000e+02,8.074882800000000316e+02
4.820000000000000000e+02,8.077993199999999661e+02
4.830000000000000000e+02,8.081076000000000477e+02
4.840000000000000000e+02,8.084131499999999733e+02
4.850000000000000000e+02,8.087159400000000460e+02
4.860000000000000000e+02,8.090161100000000260e+02
4.870000000000000000e+02,8.093135999999999513e+02
4.880000000000000000e+02,8.096084600000000364e+02
4.890000000000000000e+02,8.099007599999999911e+02
4.900000000000000000e+02,8.101903700000000299e+02
4.910000000000000000e+02,8.104775399999999763e+02
4.920000000000000000e+02,8.107620799999999690e+02
4.930000000000000000e+02,8.110441299999999956e+02
4.940000000000000000e+02,8.113236699999999928e+02
4.950000000000000000e+02,8.116007700000000114e+02
4.960000000000000000e+02,8.118753699999999753e+02
4.970000000000000000e+02,8.121475799999999481e+02
4.980000000000000000e+02,8.124173600000000306e+02
4.990000000000000000e+02,8.126847500000000082e+02
5.000000000000000000e+02,8.129498300000000199e+02
5.010000000000000000e+02,8.132125200000000405e+02
5.020000000000000000e+02,8.134728400000000192e+02
5.030000000000000000e+02,8.137309000000000196e+02
5.040000000000000000e+02,8.139866899999999532e+02
5.050000000000000000e+02,8.142401700000000346e+02
5.060000000000000000e+02,8.144914599999999609e+02
5.070000000000000000e+02,8.147404800000000478e+02
5.080000000000000000e+02,8.149873000000000047e+02
5.090000000000000000e+02,8.152319899999999961e+02
5.100000000000000000e+02,8.154744299999999839e+02
5.110000000000000000e+02,8.157147800000000188e+02
5.120000000000000000e+02,8.159529999999999745e+02
5.130000000000000000e+02,8.161890300000000025e+02
5.140000000000000000e+02,8.164230999999999767e+02
5.150000000000000000e+02,8.166550300000000107e+02
5.160000000000000000e+02,8.168848900000000413e+02
5.170000000000000000e+02,8.171127300000000560e+02
5.180000000000000000e+02,8.173385600000000295e+02
5.190000000000000000e+02,8.175623799999999619e+02
5.200000000000000000e+02,8.177841799999999921e+02
5.210000000000000000e+02,8.180040900000000192e+02
5.220000000000000000e+02,8.182219800000000305e+02
5.230000000000000000e+02,8.184379900000000134e+02
5.240000000000000000e+02,8.186521000000000186e+02
5.250000000000000000e+02,8.188642599999999447e+02
5.260000000000000000e+02,8.190745799999999690e+02
5.270000000000000000e+02,8.192830199999999650e+02
5.280000000000000000e+02,8.194896199999999453e+02
5.290000000000000000e+02,8.196943999999999733e+02
5.300000000000000000e+02,8.198973399999999856e+02
5.310000000000000000e+02,8.200985100000000330e+02
5.320000000000000000e+02,8.202978500000000395e+02
5.330000000000000000e+02,8.204954800000000432e+02
5.340000000000000000e+02,8.206913500000000568e+02
5.350000000000000000e+02,8.208854400000000169e+02
5.360000000000000000e+02,8.210778199999999742e+02
5.370000000000000000e+02,8.212684900000000425e+02
5.380000000000000000e+02,8.214575200000000450e+02
5.390000000000000000e+02,8.216448400000000447e+02
5.400000000000000000e+02,8.218305100000000039e+02
5.410000000000000000e+02,8.220145300000000361e+02
5.420000000000000000e+02,8.221969000000000278e+02
5.430000000000000000e+02,8.223777499999999918e+02
5.440000000000000000e+02,8.225568799999999783e+02
5.450000000000000000e+02,8.227345000000000255e+02
5.460000000000000000e+02,8.229104599999999436e+02
5.470000000000000000e+02,8.230849600000000237e+02
5.480000000000000000e+02,8.232578099999999495e+02
5.490000000000000000e+02,8.234292000000000371e+02
5.500000000000000000e+02,8.235990600000000086e+02
5.510000000000000000e+02,8.237673999999999523e+02
5.520000000000000000e+02,8.239342699999999695e+02
5.530000000000000000e+02,8.240996699999999464e+02
5.540000000000000000e+02,8.242635500000000093e+02
5.550000000000000000e+02,8.244260299999999688e+02
5.560000000000000000e+02,8.245870400000000018e+02
5.570000000000000000e+02,8.247466399999999567e+02
5.580000000000000000e+02,8.249047900000000482e+02
5.590000000000000000e+02,8.250615800000000490e+02
5.600000000000000000e+02,8.252169199999999591e+02
5.610000000000000000e+02,8.253709700000000566e+02
5.620000000000000000e+02,8.255236200000000508e+02
5.630000000000000000e+02,8.256748700000000554e+02
5.640000000000000000e+02,8.258248300000000199e+02
5.650000000000000000e+02,8.259734499999999571e+02
5.660000000000000000e+02,8.261207299999999805e+02
5.670000000000000000e+02,8.262667199999999639e+02
5.680000000000000000e+02,8.264114399999999705e+02
5.690000000000000000e+02,8.265548099999999749e+02
5.700000000000000000e+02,8.266969599999999900e+02
5.710000000000000000e+02,8.268378300000000536e+02
5.720000000000000000e+02,8.269774800000000141e+02
5.730000000000000000e+02,8.271159099999999853e+02
5.740000000000000000e+02,8.272530500000000302e+02
5.750000000000000000e+02,8.273889799999999468e+02
5.760000000000000000e+02,8.275237399999999752e+02
5.770000000000000000e+02,8.276572899999999890e+02
5.780000000000000000e+02,8.277896100000000388e+02
5.790000000000000000e+02,8.279208399999999983e+02
5.800000000000000000e+02,8.280508399999999938e+02
5.810000000000000000e+02,8.281797500000000127e+02
5.820000000000000000e+02,8.283074299999999539e+02
5.830000000000000000e+02,8.284340200000000323e+02
5.840000000000000000e+02,8.285595100000000457e+02
5.850000000000000000e+02,8.286838999999999942e+02
5.860000000000000000e+02,8.288071300000000292e+02
5.870000000000000000e+02,8.289293199999999615e+02
5.880000000000000000e+02,8.290503499999999804e+02
5.890000000000000000e+02,8.291703499999999849e+02
5.900000000000000000e+02,8.292893100000000004e+02
5.910000000000000000e+02,8.294072300000000268e+02
5.920000000000000000e+02,8.295240499999999884e+02
5.930000000000000000e+02,8.296398299999999608e+02
5.940000000000000000e+02,8.297546399999999949e+02
5.950000000000000000e+02,8.298684100000000399e+02
5.960000000000000000e+02,8.299811399999999821e+02
5.970000000000000000e+02,8.300928300000000490e+02
5.980000000000000000e+02,8.302036100000000260e+02
5.990000000000000000e+02,8.303134199999999510e+02