# Time [s], Temperature [C]
1.000000000000000000e+00,2.500000000000000000e+01
2.000000000000000000e+00,2.500000000000000000e+01
3.000000000000000000e+00,2.500000000000000000e+01
4.000000000000000000e+00,2.500000000000000000e+01
5.000000000000000000e+00,2.500000199999999850e+01
6.000000000000000000e+00,2.500001299999999915e+01
7.000000000000000000e+00,2.500005499999999969e+01
8.000000000000000000e+00,2.500019599999999897e+01
9.000000000000000000e+00,2.500060099999999963e+01
1.000000000000000000e+01,2.500159499999999824e+01
1.100000000000000000e+01,2.500376500000000135e+01
1.200000000000000000e+01,2.500804300000000069e+01
1.300000000000000000e+01,2.501576400000000078e+01
1.400000000000000000e+01,2.502869400000000155e+01
1.500000000000000000e+01,2.504900699999999958e+01
1.600000000000000000e+01,2.507924500000000023e+01
1.700000000000000000e+01,2.512222500000000025e+01
1.800000000000000000e+01,2.518096399999999946e+01
1.900000000000000000e+01,2.525857200000000091e+01
2.000000000000000000e+01,2.535819100000000148e+01
2.100000000000000000e+01,2.548289499999999919e+01
2.200000000000000000e+01,2.563564099999999968e+01
2.300000000000000000e+01,2.581921600000000083e+01
2.400000000000000000e+01,2.603621899999999911e+01
2.500000000000000000e+01,2.628900099999999895e+01
2.600000000000000000e+01,2.657966800000000163e+01
2.700000000000000000e+01,2.691008899999999926e+01
2.800000000000000000e+01,2.728186799999999934e+01
2.900000000000000000e+01,2.769636500000000012e+01
3.000000000000000000e+01,2.815470900000000043e+01
3.100000000000000000e+01,2.865780600000000078e+01
3.200000000000000000e+01,2.920632000000000161e+01
3.300000000000000000e+01,2.980072799999999944e+01
3.400000000000000000e+01,3.044135100000000094e+01
3.500000000000000000e+01,3.112830399999999997e+01
3.600000000000000000e+01,3.186156099999999824e+01
3.700000000000000000e+01,3.264092600000000033e+01
3.800000000000000000e+01,3.346617499999999978e+01
3.900000000000000000e+01,3.433684199999999720e+01
4.000000000000000000e+01,3.525238000000000227e+01
4.100000000000000000e+01,3.621220000000000283e+01
4.200000000000000000e+01,3.721564899999999909e+01
4.300000000000000000e+01,3.826192499999999797e+01
4.400000000000000000e+01,3.935014300000000276e+01
4.500000000000000000e+01,4.047943500000000228e+01
4.600000000000000000e+01,4.164881900000000314e+01
4.700000000000000000e+01,4.285727700000000340e+01
4.800000000000000000e+01,4.410375200000000007e+01
4.900000000000000000e+01,4.538719199999999887e+01
5.000000000000000000e+01,4.670651199999999648e+01
5.100000000000000000e+01,4.806051300000000026e+01
5.200000000000000000e+01,4.944804800000000000e+01
5.300000000000000000e+01,5.086801899999999677e+01
5.400000000000000000e+01,5.231922500000000298e+01
5.500000000000000000e+01,5.380046500000000265e+01
5.600000000000000000e+01,5.531062699999999666e+01
5.700000000000000000e+01,5.684857900000000086e+01
5.800000000000000000e+01,5.841321899999999800e+01
5.900000000000000000e+01,6.000342200000000048e+01
6.000000000000000000e+01,6.161811099999999897e+01
6.100000000000000000e+01,6.325621000000000294e+01
6.200000000000000000e+01,6.491669500000000426e+01
6.300000000000000000e+01,6.659857900000000086e+01
6.400000000000000000e+01,6.830100299999999436e+01
6.500000000000000000e+01,7.002292599999999823e+01
6.600000000000000000e+01,7.176348099999999874e+01
6.700000000000000000e+01,7.352187299999999937e+01
6.800000000000000000e+01,7.529721100000000433e+01
6.900000000000000000e+01,7.708875299999999697e+01
7.000000000000000000e+01,7.889567599999999459e+01
7.100000000000000000e+01,8.071732299999999327e+01
7.200000000000000000e+01,8.255290200000000311e+01
7.300000000000000000e+01,8.440183299999999633e+01
7.400000000000000000e+01,8.626337399999999889e+01
7.500000000000000000e+01,8.813698599999999317e+01
7.600000000000000000e+01,9.002205700000000377e+01
7.700000000000000000e+01,9.191799199999999814e+01
7.800000000000000000e+01,9.382413499999999829e+01
7.900000000000000000e+01,9.574002099999999871e+01
8.000000000000000000e+01,9.766514599999999291e+01
8.100000000000000000e+01,9.959903699999999560e+01
8.200000000000000000e+01,1.015411600000000050e+02
8.300000000000000000e+01,1.034910500000000013e+02
8.400000000000000000e+01,1.054481700000000046e+02
8.500000000000000000e+01,1.074121899999999954e+02
8.600000000000000000e+01,1.093826399999999950e+02
8.700000000000000000e+01,1.113590899999999948e+02
8.800000000000000000e+01,1.133411600000000021e+02
8.900000000000000000e+01,1.153284299999999973e+02
9.000000000000000000e+01,1.173205099999999987e+02
9.100000000000000000e+01,1.193170400000000058e+02
9.200000000000000000e+01,1.213176500000000004e+02
9.300000000000000000e+01,1.233219799999999964e+02
9.400000000000000000e+01,1.253296699999999930e+02
9.500000000000000000e+01,1.273404000000000025e+02
9.600000000000000000e+01,1.293538399999999911e+02
9.700000000000000000e+01,1.313696300000000008e+02
9.800000000000000000e+01,1.333875099999999918e+02
9.900000000000000000e+01,1.354071700000000078e+02
1.000000000000000000e+02,1.374282800000000009e+02
1.010000000000000000e+02,1.394505599999999959e+02
1.020000000000000000e+02,1.414737399999999923e+02
1.030000000000000000e+02,1.434975300000000118e+02
1.040000000000000000e+02,1.455217399999999941e+02
1.050000000000000000e+02,1.475460199999999986e+02
1.060000000000000000e+02,1.495892599999999959e+02
1.070000000000000000e+02,1.516210299999999904e+02
1.080000000000000000e+02,1.536492900000000077e+02
1.090000000000000000e+02,1.556757399999999905e+02
1.100000000000000000e+02,1.577004399999999862e+02
1.110000000000000000e+02,1.597234300000000076e+02
1.120000000000000000e+02,1.617446899999999914e+02
1.130000000000000000e+02,1.637641900000000135e+02
1.140000000000000000e+02,1.657818900000000042e+02
1.150000000000000000e+02,1.677977600000000109e+02
1.160000000000000000e+02,1.698117100000000050e+02
1.170000000000000000e+02,1.718236100000000022e+02
1.180000000000000000e+02,1.738333000000000084e+02
1.190000000000000000e+02,1.758405899999999917e+02
1.200000000000000000e+02,1.778453199999999867e+02
1.210000000000000000e+02,1.798472299999999962e+02
1.220000000000000000e+02,1.818461499999999944e+02
1.230000000000000000e+02,1.838418299999999874e+02
1.240000000000000000e+02,1.858341100000000097e+02
1.250000000000000000e+02,1.878227699999999913e+02
1.260000000000000000e+02,1.898076499999999953e+02
1.270000000000000000e+02,1.917885300000000086e+02
1.280000000000000000e+02,1.937652400000000057e+02
1.290000000000000000e+02,1.957375800000000083e+02
1.300000000000000000e+02,1.977053999999999974e+02
1.310000000000000000e+02,1.996685600000000136e+02
1.320000000000000000e+02,2.016268799999999999e+02
1.330000000000000000e+02,2.035801700000000096e+02
1.340000000000000000e+02,2.055282699999999920e+02
1.350000000000000000e+02,2.074709499999999878e+02
1.360000000000000000e+02,2.094080800000000124e+02
1.370000000000000000e+02,2.113395199999999932e+02
1.380000000000000000e+02,2.132651099999999929e+02
1.390000000000000000e+02,2.151846500000000049e+02
1.400000000000000000e+02,2.170979000000000099e+02
1.410000000000000000e+02,2.190048099999999920e+02
1.420000000000000000e+02,2.209051699999999983e+02
1.430000000000000000e+02,2.227987799999999936e+02
1.440000000000000000e+02,2.246854099999999903e+02
1.450000000000000000e+02,2.265649699999999882e+02
1.460000000000000000e+02,2.284372899999999902e+02
1.470000000000000000e+02,2.303020899999999926e+02
1.480000000000000000e+02,2.321592699999999923e+02
1.490000000000000000e+02,2.340086400000000140e+02
1.500000000000000000e+02,2.358499500000000069e+02
1.510000000000000000e+02,2.376831099999999992e+02
1.520000000000000000e+02,2.395078300000000127e+02
1.530000000000000000e+02,2.413240399999999966e+02
1.540000000000000000e+02,2.431314399999999978e+02
1.550000000000000000e+02,2.449297599999999875e+02
1.560000000000000000e+02,2.467188999999999908e+02
1.570000000000000000e+02,2.484985700000000008e+02
1.580000000000000000e+02,2.502685400000000016e+02
1.590000000000000000e+02,2.520286399999999958e+02
1.600000000000000000e+02,2.537785000000000082e+02
1.610000000000000000e+02,2.555180499999999881e+02
1.620000000000000000e+02,2.572468600000000265e+02
1.630000000000000000e+02,2.589646599999999808e+02
1.640000000000000000e+02,2.606711399999999799e+02
1.650000000000000000e+02,2.623661200000000235e+02
1.660000000000000000e+02,2.640491000000000099e+02
1.670000000000000000e+02,2.657198500000000081e+02
1.680000000000000000e+02,2.673779599999999732e+02
1.690000000000000000e+02,2.690230999999999995e+02
1.700000000000000000e+02,2.706548799999999915e+02
1.710000000000000000e+02,2.722728599999999801e+02
1.720000000000000000e+02,2.738766499999999837e+02
1.730000000000000000e+02,2.754658800000000269e+02
1.740000000000000000e+02,2.770400700000000143e+02
1.750000000000000000e+02,2.785988199999999892e+02
1.760000000000000000e+02,2.801429400000000101e+02
1.770000000000000000e+02,2.816705900000000042e+02
1.780000000000000000e+02,2.831820700000000102e+02
1.790000000000000000e+02,2.846773699999999963e+02
1.800000000000000000e+02,2.861561899999999810e+02
1.810000000000000000e+02,2.876181300000000078e+02
1.820000000000000000e+02,2.890623800000000188e+02
1.830000000000000000e+02,2.904879799999999932e+02
1.840000000000000000e+02,2.918942000000000121e+02
1.850000000000000000e+02,2.932802699999999732e+02
1.860000000000000000e+02,2.946456299999999828e+02
1.870000000000000000e+02,2.959898699999999963e+02
1.880000000000000000e+02,2.973127099999999814e+02
1.890000000000000000e+02,2.986140100000000075e+02
1.900000000000000000e+02,2.998933999999999855e+02
1.910000000000000000e+02,3.011505700000000161e+02
1.920000000000000000e+02,3.023851300000000037e+02
1.930000000000000000e+02,3.035966500000000110e+02
1.940000000000000000e+02,3.047849100000000249e+02
1.950000000000000000e+02,3.059497400000000198e+02
1.960000000000000000e+02,3.070910000000000082e+02
1.970000000000000000e+02,3.082087399999999775e+02
1.980000000000000000e+02,3.093030699999999911e+02
1.990000000000000000e+02,3.103741099999999733e+02
2.000000000000000000e+02,3.114222100000000069e+02
2.010000000000000000e+02,3.124476599999999848e+02
2.020000000000000000e+02,3.134508099999999899e+02
2.030000000000000000e+02,3.144322199999999725e+02
2.040000000000000000e+02,3.153923599999999965e+02
2.050000000000000000e+02,3.163319700000000125e+02
2.060000000000000000e+02,3.172516800000000217e+02
2.070000000000000000e+02,3.181521000000000186e+02
2.080000000000000000e+02,3.190343599999999924e+02
2.090000000000000000e+02,3.198993500000000267e+02
2.100000000000000000e+02,3.207478300000000218e+02
2.110000000000000000e+02,3.215809899999999857e+02
2.120000000000000000e+02,3.224001200000000154e+02
2.130000000000000000e+02,3.232065099999999802e+02
2.140000000000000000e+02,3.240012199999999893e+02
2.150000000000000000e+02,3.247848500000000058e+02
2.160000000000000000e+02,3.255579799999999864e+02
2.170000000000000000e+02,3.263213200000000143e+02
2.180000000000000000e+02,3.270758700000000090e+02
2.190000000000000000e+02,3.278226599999999848e+02
2.200000000000000000e+02,3.285628399999999942e+02
2.210000000000000000e+02,3.292976400000000012e+02
2.220000000000000000e+02,3.300282599999999888e+02
2.230000000000000000e+02,3.307558000000000220e+02
2.240000000000000000e+02,3.315448600000000283e+02
2.250000000000000000e+02,3.323067300000000159e+02
2.260000000000000000e+02,3.330606700000000160e+02
2.270000000000000000e+02,3.338111599999999726e+02
2.280000000000000000e+02,3.345590500000000134e+02
2.290000000000000000e+02,3.353063999999999965e+02
2.300000000000000000e+02,3.360546899999999937e+02
2.310000000000000000e+02,3.368038300000000049e+02
2.320000000000000000e+02,3.375529500000000098e+02
2.330000000000000000e+02,3.383024899999999775e+02
2.340000000000000000e+02,3.390556900000000269e+02
2.350000000000000000e+02,3.398165900000000192e+02
2.360000000000000000e+02,3.405879800000000159e+02
2.370000000000000000e+02,3.413715199999999754e+02
2.380000000000000000e+02,3.421685499999999820e+02
2.390000000000000000e+02,3.429798599999999738e+02
2.400000000000000000e+02,3.438063700000000154e+02
2.410000000000000000e+02,3.446487999999999943e+02
2.420000000000000000e+02,3.455079000000000065e+02
2.430000000000000000e+02,3.463849799999999846e+02
2.440000000000000000e+02,3.472810099999999807e+02
2.450000000000000000e+02,3.481966199999999958e+02
2.460000000000000000e+02,3.491327499999999873e+02
2.470000000000000000e+02,3.500903000000000134e+02
2.480000000000000000e+02,3.510700100000000248e+02
2.490000000000000000e+02,3.520720499999999902e+02
2.500000000000000000e+02,3.530945399999999950e+02
2.510000000000000000e+02,3.541372700000000009e+02
2.520000000000000000e+02,3.552020299999999793e+02
2.530000000000000000e+02,3.562910499999999843e+02
2.540000000000000000e+02,3.574064900000000193e+02
2.550000000000000000e+02,3.585505699999999933e+02
2.560000000000000000e+02,3.597259799999999927e+02
2.570000000000000000e+02,3.609354599999999778e+02
2.580000000000000000e+02,3.621824599999999919e+02
2.590000000000000000e+02,3.634682000000000244e+02
2.600000000000000000e+02,3.647954399999999850e+02
2.610000000000000000e+02,3.661657999999999902e+02
2.620000000000000000e+02,3.675812999999999988e+02
2.630000000000000000e+02,3.690437600000000202e+02
2.640000000000000000e+02,3.705510300000000257e+02
2.650000000000000000e+02,3.721013800000000060e+02
2.660000000000000000e+02,3.736994300000000067e+02
2.670000000000000000e+02,3.753510699999999929e+02
2.680000000000000000e+02,3.770616800000000239e+02
2.690000000000000000e+02,3.788363299999999754e+02
2.700000000000000000e+02,3.806814600000000155e+02
2.710000000000000000e+02,3.826071200000000090e+02
2.720000000000000000e+02,3.846122100000000046e+02
2.730000000000000000e+02,3.870968899999999735e+02
2.740000000000000000e+02,3.893928799999999910e+02
2.750000000000000000e+02,3.916878399999999942e+02
2.760000000000000000e+02,3.940849900000000048e+02
2.770000000000000000e+02,3.965715000000000146e+02
2.780000000000000000e+02,3.991640600000000063e+02
2.790000000000000000e+02,4.018732600000000161e+02
2.800000000000000000e+02,4.047126200000000154e+02
2.810000000000000000e+02,4.076901599999999917e+02
2.820000000000000000e+02,4.108235799999999927e+02
2.830000000000000000e+02,4.141147199999999771e+02
2.840000000000000000e+02,4.175804699999999912e+02
2.850000000000000000e+02,4.212186899999999810e+02
2.860000000000000000e+02,4.250421799999999735e+02
2.870000000000000000e+02,4.290559400000000210e+02
2.880000000000000000e+02,4.332472500000000082e+02
2.890000000000000000e+02,4.376256099999999947e+02
2.900000000000000000e+02,4.422074900000000071e+02
2.910000000000000000e+02,4.469894699999999830e+02
2.920000000000000000e+02,4.519724100000000249e+02
2.930000000000000000e+02,4.571600599999999872e+02
2.940000000000000000e+02,4.625281400000000076e+02
2.950000000000000000e+02,4.681063199999999824e+02
2.960000000000000000e+02,4.738148800000000165e+02
2.970000000000000000e+02,4.795744300000000067e+02
2.980000000000000000e+02,4.853281200000000126e+02
2.990000000000000000e+02,4.911190799999999967e+02
3.000000000000000000e+02,4.969742699999999900e+02
3.010000000000000000e+02,5.028422899999999913e+02
3.020000000000000000e+02,5.086934200000000033e+02
3.030000000000000000e+02,5.145184900000000425e+02
3.040000000000000000e+02,5.202912000000000035e+02
3.050000000000000000e+02,5.260005499999999756e+02
3.060000000000000000e+02,5.316591799999999921e+02
3.070000000000000000e+02,5.371885999999999513e+02
3.080000000000000000e+02,5.424858400000000529e+02
3.090000000000000000e+02,5.475222199999999475e+02
3.100000000000000000e+02,5.524125999999999976e+02
3.110000000000000000e+02,5.572128300000000536e+02
3.120000000000000000e+02,5.618975799999999481e+02
3.130000000000000000e+02,5.664746699999999464e+02
3.140000000000000000e+02,5.709654500000000326e+02
3.150000000000000000e+02,5.753667599999999993e+02
3.160000000000000000e+02,5.796334200000000010e+02
3.170000000000000000e+02,5.836672399999999925e+02
3.180000000000000000e+02,5.874718599999999924e+02
3.190000000000000000e+02,5.911628399999999601e+02
3.200000000000000000e+02,5.947793000000000347e+02
3.210000000000000000e+02,5.983064000000000533e+02
3.220000000000000000e+02,6.017534799999999677e+02
3.230000000000000000e+02,6.051528299999999945e+02
3.240000000000000000e+02,6.084977999999999838e+02
3.250000000000000000e+02,6.117240000000000464e+02
3.260000000000000000e+02,6.147178999999999860e+02
3.270000000000000000e+02,6.175023800000000165e+02
3.280000000000000000e+02,6.202224700000000439e+02
3.290000000000000000e+02,6.228969700000000103e+02
3.300000000000000000e+02,6.255313700000000381e+02
3.310000000000000000e+02,6.281171900000000505e+02
3.320000000000000000e+02,6.307232699999999568e+02
3.330000000000000000e+02,6.333336199999999963e+02
3.340000000000000000e+02,6.358142699999999650e+02
3.350000000000000000e+02,6.380424799999999550e+02
3.360000000000000000e+02,6.400485800000000154e+02
3.370000000000000000e+02,6.420654899999999543e+02
3.380000000000000000e+02,6.440299099999999726e+02
3.390000000000000000e+02,6.460278299999999945e+02
3.400000000000000000e+02,6.480434599999999818e+02
3.410000000000000000e+02,6.499181499999999687e+02
3.420000000000000000e+02,6.516405600000000504e+02
3.430000000000000000e+02,6.531702299999999468e+02
3.440000000000000000e+02,6.547728899999999612e+02
3.450000000000000000e+02,6.562461499999999432e+02
3.460000000000000000e+02,6.578916000000000395e+02
3.470000000000000000e+02,6.594500100000000202e+02
3.480000000000000000e+02,6.610145300000000361e+02
3.490000000000000000e+02,6.625997300000000223e+02
3.500000000000000000e+02,6.638848299999999654e+02
3.510000000000000000e+02,6.653889199999999846e+02
3.520000000000000000e+02,6.665671399999999949e+02
3.530000000000000000e+02,6.680447400000000471e+02
3.540000000000000000e+02,6.690651900000000296e+02
3.550000000000000000e+02,6.705422399999999925e+02
3.560000000000000000e+02,6.721334799999999632e+02
3.570000000000000000e+02,6.731726700000000392e+02
3.580000000000000000e+02,6.743754300000000512e+02
3.590000000000000000e+02,6.748866600000000062e+02
3.600000000000000000e+02,6.762242999999999711e+02
3.610000000000000000e+02,6.765820300000000316e+02
3.620000000000000000e+02,6.778622400000000425e+02
3.630000000000000000e+02,6.792993800000000419e+02
3.640000000000000000e+02,6.798262300000000096e+02
3.650000000000000000e+02,6.810023200000000543e+02
3.660000000000000000e+02,6.809461700000000519e+02
3.670000000000000000e+02,6.824796099999999797e+02
3.680000000000000000e+02,6.820885600000000295e+02
3.690000000000000000e+02,6.834014899999999670e+02
3.700000000000000000e+02,6.849025299999999561e+02
3.710000000000000000e+02,6.848825100000000248e+02
3.720000000000000000e+02,6.863019399999999450e+02
3.730000000000000000e+02,6.855465699999999742e+02
3.740000000000000000e+02,6.876560100000000375e+02
3.750000000000000000e+02,6.862165499999999838e+02
3.760000000000000000e+02,6.877993800000000419e+02
3.770000000000000000e+02,6.895766599999999471e+02
3.780000000000000000e+02,6.888617600000000039e+02
3.790000000000000000e+02,6.908152499999999918e+02
3.800000000000000000e+02,6.890517599999999447e+02
3.810000000000000000e+02,6.921993999999999687e+02
3.820000000000000000e+02,6.892108799999999746e+02
3.830000000000000000e+02,6.913510700000000497e+02
3.840000000000000000e+02,6.936587500000000546e+02
3.850000000000000000e+02,6.919978599999999460e+02
3.860000000000000000e+02,6.949057599999999866e+02
3.870000000000000000e+02,6.917079499999999825e+02
3.880000000000000000e+02,6.965869800000000396e+02
3.890000000000000000e+02,6.913052999999999884e+02
3.900000000000000000e+02,6.944272499999999582e+02
3.910000000000000000e+02,6.975932000000000244e+02
3.920000000000000000e+02,6.946013199999999870e+02
3.930000000000000000e+02,6.990184299999999666e+02
3.940000000000000000e+02,6.937102700000000368e+02
3.950000000000000000e+02,7.012690999999999804e+02
3.960000000000000000e+02,6.991940899999999601e+02
3.970000000000000000e+02,6.964426300000000083e+02
3.980000000000000000e+02,7.005194699999999557e+02
3.990000000000000000e+02,6.955554799999999886e+02
4.000000000000000000e+02,7.024346900000000460e+02
4.010000000000000000e+02,6.942323599999999715e+02
4.020000000000000000e+02,7.059141799999999876e+02
4.030000000000000000e+02,7.025685399999999845e+02
4.040000000000000000e+02,6.981535599999999704e+02
4.050000000000000000e+02,7.042469499999999698e+02
4.060000000000000000e+02,6.966485000000000127e+02
4.070000000000000000e+02,7.070018900000000031e+02
4.080000000000000000e+02,6.945116000000000440e+02
4.090000000000000000e+02,7.121980600000000550e+02
4.100000000000000000e+02,7.070067699999999604e+02
4.110000000000000000e+02,7.000595700000000079e+02
4.120000000000000000e+02,7.091315899999999601e+02
4.130000000000000000e+02,6.976726700000000392e+02
4.140000000000000000e+02,7.131279899999999543e+02
4.150000000000000000e+02,6.943820200000000114e+02
4.160000000000000000e+02,7.031671099999999797e+02
4.170000000000000000e+02,7.103724999999999454e+02
4.180000000000000000e+02,7.005030500000000302e+02
4.190000000000000000e+02,7.133344100000000481e+02
4.200000000000000000e+02,6.967047099999999773e+02
4.210000000000000000e+02,7.191537499999999454e+02
4.220000000000000000e+02,6.918073100000000295e+02
4.230000000000000000e+02,7.049117999999999711e+02
4.240000000000000000e+02,7.148952600000000075e+02
4.250000000000000000e+02,7.007027000000000498e+02
4.260000000000000000e+02,7.194489700000000312e+02
4.270000000000000000e+02,6.953756100000000515e+02
4.280000000000000000e+02,7.285614000000000487e+02
4.290000000000000000e+02,7.175999799999999595e+02
4.300000000000000000e+02,7.030612800000000107e+02
4.310000000000000000e+02,7.201439199999999801e+02
4.320000000000000000e+02,6.982599500000000035e+02
4.330000000000000000e+02,7.270739700000000312e+02
4.340000000000000000e+02,6.917054399999999532e+02
4.350000000000000000e+02,7.080389999999999873e+02
4.360000000000000000e+02,7.195098900000000413e+02
4.370000000000000000e+02,7.023368500000000267e+02
4.380000000000000000e+02,7.250016500000000406e+02
4.390000000000000000e+02,6.954979899999999589e+02
4.400000000000000000e+02,7.359921900000000505e+02
4.410000000000000000e+02,7.219967699999999695e+02
4.420000000000000000e+02,7.037557399999999461e+02
4.430000000000000000e+02,7.247751500000000533e+02
4.440000000000000000e+02,6.978827499999999873e+02
4.450000000000000000e+02,7.329703399999999647e+02
4.460000000000000000e+02,6.897268699999999626e+02
4.470000000000000000e+02,7.094578900000000203e+02
4.480000000000000000e+02,7.225481600000000526e+02
4.490000000000000000e+02,7.024824800000000096e+02
4.500000000000000000e+02,7.291625999999999976e+02
4.510000000000000000e+02,6.943199499999999489e+02
4.520000000000000000e+02,7.423286100000000260e+02
4.530000000000000000e+02,7.254926100000000133e+02
4.540000000000000000e+02,7.034943799999999783e+02
4.550000000000000000e+02,7.286810299999999643e+02
4.560000000000000000e+02,6.966975700000000415e+02
4.570000000000000000e+02,7.383306300000000419e+02
4.580000000000000000e+02,7.223587599999999611e+02
4.590000000000000000e+02,7.051257299999999759e+02
4.600000000000000000e+02,7.249717399999999543e+02
4.610000000000000000e+02,6.990845900000000483e+02
4.620000000000000000e+02,7.323335600000000341e+02
4.630000000000000000e+02,6.904749100000000226e+02
4.640000000000000000e+02,7.087196000000000140e+02
4.650000000000000000e+02,7.212375500000000557e+02
4.660000000000000000e+02,7.022080700000000206e+02
4.670000000000000000e+02,7.271365399999999681e+02
4.680000000000000000e+02,6.942536000000000058e+02
4.690000000000000000e+02,7.387274200000000519e+02
4.700000000000000000e+02,7.223121899999999869e+02
4.710000000000000000e+02,7.023144499999999653e+02
4.720000000000000000e+02,7.253273900000000367e+02
4.730000000000000000e+02,6.959233400000000529e+02
4.740000000000000000e+02,7.337221100000000433e+02
4.750000000000000000e+02,6.867211899999999787e+02
4.760000000000000000e+02,7.074539800000000014e+02
4.770000000000000000e+02,7.211071200000000090e+02
4.780000000000000000e+02,7.004028899999999567e+02
4.790000000000000000e+02,7.278633999999999560e+02
4.800000000000000000e+02,6.918744500000000244e+02
4.810000000000000000e+02,7.409196799999999712e+02
4.820000000000000000e+02,7.229769300000000385e+02
4.830000000000000000e+02,7.007932100000000446e+02
4.840000000000000000e+02,7.263701200000000426e+02
4.850000000000000000e+02,6.940187399999999798e+02
4.860000000000000000e+02,7.357073400000000447e+02
4.870000000000000000e+02,6.842197899999999890e+02
4.880000000000000000e+02,7.071090699999999742e+02
4.890000000000000000e+02,7.217664800000000014e+02
4.900000000000000000e+02,6.995062900000000354e+02
4.910000000000000000e+02,7.292825299999999515e+02
4.920000000000000000e+02,6.903884299999999712e+02
4.930000000000000000e+02,7.066797500000000127e+02
4.940000000000000000e+02,7.191864600000000110e+02
4.950000000000000000e+02,7.006447100000000319e+02
4.960000000000000000e+02,7.246588699999999790e+02
4.970000000000000000e+02,6.930414399999999659e+02
4.980000000000000000e+02,7.352827099999999518e+02
4.990000000000000000e+02,7.192516500000000406e+02
5.000000000000000000e+02,7.007503699999999753e+02
5.010000000000000000e+02,7.222159400000000460e+02
5.020000000000000000e+02,6.947686200000000554e+02
5.030000000000000000e+02,7.298360599999999749e+02
5.040000000000000000e+02,6.859974399999999832e+02
5.050000000000000000e+02,7.049554399999999532e+02
5.060000000000000000e+02,7.178498499999999467e+02
5.070000000000000000e+02,6.987241800000000467e+02
5.080000000000000000e+02,7.239019799999999805e+02
5.090000000000000000e+02,6.909139400000000251e+02
5.100000000000000000e+02,7.353590699999999742e+02
5.110000000000000000e+02,7.187096599999999853e+02
5.120000000000000000e+02,6.990968599999999924e+02
5.130000000000000000e+02,7.219205299999999852e+02
5.140000000000000000e+02,6.930034200000000055e+02
5.150000000000000000e+02,7.300430300000000443e+02
5.160000000000000000e+02,6.840210600000000341e+02
5.170000000000000000e+02,7.040571899999999914e+02
5.180000000000000000e+02,7.174947499999999536e+02
5.190000000000000000e+02,6.976248199999999997e+02
5.200000000000000000e+02,7.239417099999999436e+02
5.210000000000000000e+02,6.895997899999999845e+02
5.220000000000000000e+02,7.360462599999999611e+02
5.230000000000000000e+02,7.187564700000000357e+02
5.240000000000000000e+02,6.982123400000000402e+02
5.250000000000000000e+02,7.221473399999999856e+02
5.260000000000000000e+02,6.919768699999999626e+02
5.270000000000000000e+02,7.306871899999999869e+02
5.280000000000000000e+02,6.827735000000000127e+02
5.290000000000000000e+02,7.037250999999999976e+02
5.300000000000000000e+02,7.176191999999999780e+02
5.310000000000000000e+02,6.970789200000000392e+02
5.320000000000000000e+02,7.243938000000000557e+02
5.330000000000000000e+02,6.888217799999999897e+02
5.340000000000000000e+02,7.370743400000000065e+02
5.350000000000000000e+02,7.191931200000000217e+02
5.360000000000000000e+02,6.977804599999999482e+02
5.370000000000000000e+02,7.227266799999999876e+02
5.380000000000000000e+02,6.913805499999999711e+02
5.390000000000000000e+02,7.316377599999999575e+02
5.400000000000000000e+02,6.819355500000000347e+02
5.410000000000000000e+02,7.037500599999999622e+02
5.420000000000000000e+02,7.180520599999999831e+02
5.430000000000000000e+02,6.968689600000000155e+02
5.440000000000000000e+02,7.251240800000000490e+02
5.450000000000000000e+02,6.883681599999999889e+02
5.460000000000000000e+02,7.383648100000000341e+02
5.470000000000000000e+02,7.199019200000000183e+02
5.480000000000000000e+02,6.976220100000000457e+02
5.490000000000000000e+02,7.235593300000000454e+02
5.500000000000000000e+02,6.910361299999999574e+02
5.510000000000000000e+02,7.328359400000000505e+02
5.520000000000000000e+02,6.813252599999999575e+02
5.530000000000000000e+02,7.040175199999999904e+02
5.540000000000000000e+02,7.187113000000000511e+02
5.550000000000000000e+02,6.968795199999999568e+02
5.560000000000000000e+02,7.260856899999999996e+02
5.570000000000000000e+02,6.880997300000000223e+02
5.580000000000000000e+02,7.399086300000000165e+02
5.590000000000000000e+02,7.208446699999999510e+02
5.600000000000000000e+02,6.976339699999999766e+02
5.610000000000000000e+02,7.246182900000000018e+02
5.620000000000000000e+02,6.908418000000000347e+02
5.630000000000000000e+02,7.342863800000000083e+02
5.640000000000000000e+02,6.808461300000000165e+02
5.650000000000000000e+02,7.044749100000000226e+02
5.660000000000000000e+02,7.195765400000000227e+02
5.670000000000000000e+02,6.970386399999999867e+02
5.680000000000000000e+02,7.272750200000000405e+02
5.690000000000000000e+02,6.879500699999999824e+02
5.700000000000000000e+02,7.043810999999999467e+02
5.710000000000000000e+02,7.170999100000000226e+02
5.720000000000000000e+02,6.985714100000000144e+02
5.730000000000000000e+02,7.226418499999999767e+02
5.740000000000000000e+02,6.911242700000000241e+02
5.750000000000000000e+02,7.331639400000000251e+02
5.760000000000000000e+02,7.171250000000000000e+02
5.770000000000000000e+02,6.989526399999999740e+02
5.780000000000000000e+02,7.201935399999999845e+02
5.790000000000000000e+02,6.931671099999999797e+02
5.800000000000000000e+02,7.276605200000000195e+02
5.810000000000000000e+02,6.845915499999999838e+02
5.820000000000000000e+02,7.031224999999999454e+02
5.830000000000000000e+02,7.158487499999999955e+02
5.840000000000000000e+02,6.972418800000000374e+02
5.850000000000000000e+02,7.217271700000000010e+02
5.860000000000000000e+02,6.897394399999999450e+02
5.870000000000000000e+02,7.326807300000000396e+02
5.880000000000000000e+02,7.164754599999999982e+02
5.890000000000000000e+02,6.977761199999999917e+02
5.900000000000000000e+02,7.196715699999999742e+02
5.910000000000000000e+02,6.919897499999999582e+02
5.920000000000000000e+02,7.273862900000000309e+02
5.930000000000000000e+02,6.833762799999999515e+02
5.940000000000000000e+02,7.023977099999999609e+02
5.950000000000000000e+02,7.153775600000000168e+02
5.960000000000000000e+02,6.964508700000000090e+02
5.970000000000000000e+02,7.214541600000000017e+02
5.980000000000000000e+02,6.888925199999999904e+02
5.990000000000000000e+02,7.327071499999999560e+02