# Time [s], Mass [Kg]
1.000000000000000000e+00,1.000000000000000000e+00
2.000000000000000000e+00,1.000000000000000000e+00
3.000000000000000000e+00,1.000000000000000000e+00
4.000000000000000000e+00,1.000000000000000000e+00
5.000000000000000000e+00,1.000000000000000000e+00
6.000000000000000000e+00,1.000000000000000000e+00
7.000000000000000000e+00,1.000000000000000000e+00
8.000000000000000000e+00,1.000000000000000000e+00
9.000000000000000000e+00,1.000000000000000000e+00
1.000000000000000000e+01,1.000000000000000000e+00
1.100000000000000000e+01,9.999999400000000316e-01
1.200000000000000000e+01,9.999998199999999837e-01
1.300000000000000000e+01,9.999995200000000306e-01
1.400000000000000000e+01,9.999989299999999526e-01
1.500000000000000000e+01,9.999977399999999683e-01
1.600000000000000000e+01,9.999954100000000290e-01
1.700000000000000000e+01,9.999913000000000274e-01
1.800000000000000000e+01,9.999840899999999921e-01
1.900000000000000000e+01,9.999721599999999988e-01
2.000000000000000000e+01,9.999530899999999889e-01
2.100000000000000000e+01,9.999238299999999580e-01
2.200000000000000000e+01,9.998801899999999465e-01
2.300000000000000000e+01,9.998172499999999907e-01
2.400000000000000000e+01,9.997288600000000525e-01
2.500000000000000000e+01,9.996080400000000310e-01
2.600000000000000000e+01,9.994469900000000351e-01
2.700000000000000000e+01,9.992379000000000122e-01
2.800000000000000000e+01,9.989730700000000185e-01
2.900000000000000000e+01,9.986458999999999753e-01
3.000000000000000000e+01,9.982523899999999895e-01
3.100000000000000000e+01,9.977896800000000121e-01
3.200000000000000000e+01,9.972577700000000434e-01
3.300000000000000000e+01,9.966613699999999909e-01
3.400000000000000000e+01,9.960035699999999492e-01
3.500000000000000000e+01,9.952900399999999870e-01
3.600000000000000000e+01,9.945304400000000156e-01
3.700000000000000000e+01,9.937282200000000509e-01
3.800000000000000000e+01,9.928885100000000019e-01
3.900000000000000000e+01,9.920203100000000163e-01
4.000000000000000000e+01,9.911235600000000145e-01
4.100000000000000000e+01,9.902003400000000122e-01
4.200000000000000000e+01,9.892573999999999534e-01
4.300000000000000000e+01,9.882925200000000077e-01
4.400000000000000000e+01,9.873064200000000179e-01
4.500000000000000000e+01,9.863045200000000179e-01
4.600000000000000000e+01,9.852849200000000085e-01
4.700000000000000000e+01,9.842482200000000070e-01
4.800000000000000000e+01,9.830014700000000438e-01
4.900000000000000000e+01,9.818695200000000511e-01
5.000000000000000000e+01,9.807559300000000535e-01
5.100000000000000000e+01,9.796446599999999449e-01
5.200000000000000000e+01,9.785324300000000086e-01
5.300000000000000000e+01,9.774143100000000084e-01
5.400000000000000000e+01,9.762932699999999908e-01
5.500000000000000000e+01,9.751669200000000481e-01
5.600000000000000000e+01,9.740345500000000545e-01
5.700000000000000000e+01,9.728979500000000114e-01
5.800000000000000000e+01,9.717561599999999800e-01
5.900000000000000000e+01,9.706084099999999770e-01
6.000000000000000000e+01,9.694563200000000380e-01
6.100000000000000000e+01,9.682991499999999974e-01
6.200000000000000000e+01,9.671366799999999708e-01
6.300000000000000000e+01,9.659701600000000221e-01
6.400000000000000000e+01,9.647995200000000215e-01
6.500000000000000000e+01,9.636247199999999902e-01
6.600000000000000000e+01,9.624468099999999859e-01
6.700000000000000000e+01,9.612659799999999644e-01
6.800000000000000000e+01,9.600821699999999570e-01
6.900000000000000000e+01,9.588962199999999658e-01
7.000000000000000000e+01,9.577081200000000516e-01
7.100000000000000000e+01,9.565178199999999631e-01
7.200000000000000000e+01,9.553256599999999654e-01
7.300000000000000000e+01,9.541317200000000165e-01
7.400000000000000000e+01,9.529357000000000522e-01
7.500000000000000000e+01,9.517379999999999729e-01
7.600000000000000000e+01,9.505386399999999902e-01
7.700000000000000000e+01,9.493374799999999558e-01
7.800000000000000000e+01,9.481349000000000027e-01
7.900000000000000000e+01,9.469308899999999696e-01
8.000000000000000000e+01,9.457255599999999651e-01
8.100000000000000000e+01,9.445190999999999448e-01
8.200000000000000000e+01,9.433116299999999566e-01
8.300000000000000000e+01,9.421030299999999524e-01
8.400000000000000000e+01,9.408935899999999464e-01
8.500000000000000000e+01,9.396832000000000518e-01
8.600000000000000000e+01,9.384717900000000279e-01
8.700000000000000000e+01,9.372594400000000547e-01
8.800000000000000000e+01,9.360460600000000131e-01
8.900000000000000000e+01,9.348315000000000374e-01
9.000000000000000000e+01,9.336157999999999957e-01
9.100000000000000000e+01,9.323989700000000491e-01
9.200000000000000000e+01,9.311809500000000073e-01
9.300000000000000000e+01,9.299617399999999812e-01
9.400000000000000000e+01,9.287414000000000502e-01
9.500000000000000000e+01,9.275197400000000370e-01
9.600000000000000000e+01,9.262969500000000078e-01
9.700000000000000000e+01,9.250728499999999466e-01
9.800000000000000000e+01,9.238473799999999958e-01
9.900000000000000000e+01,9.226205899999999627e-01
1.000000000000000000e+02,9.213923200000000424e-01
1.010000000000000000e+02,9.201625599999999627e-01
1.020000000000000000e+02,9.189311900000000088e-01
1.030000000000000000e+02,9.176980900000000219e-01
1.040000000000000000e+02,9.164632000000000334e-01
1.050000000000000000e+02,9.152264599999999639e-01
1.060000000000000000e+02,9.139876999999999585e-01
1.070000000000000000e+02,9.127469700000000463e-01
1.080000000000000000e+02,9.115040899999999890e-01
1.090000000000000000e+02,9.102590099999999795e-01
1.100000000000000000e+02,9.090116599999999991e-01
1.110000000000000000e+02,9.077619900000000186e-01
1.120000000000000000e+02,9.065098799999999901e-01
1.130000000000000000e+02,9.052552600000000060e-01
1.140000000000000000e+02,9.039980199999999577e-01
1.150000000000000000e+02,9.027380299999999691e-01
1.160000000000000000e+02,9.014751300000000134e-01
1.170000000000000000e+02,9.002092499999999609e-01
1.180000000000000000e+02,8.989403200000000149e-01
1.190000000000000000e+02,8.976681800000000377e-01
1.200000000000000000e+02,8.963927000000000422e-01
1.210000000000000000e+02,8.951138299999999992e-01
1.220000000000000000e+02,8.938313100000000455e-01
1.230000000000000000e+02,8.925452200000000280e-01
1.240000000000000000e+02,8.912553800000000415e-01
1.250000000000000000e+02,8.899616000000000193e-01
1.260000000000000000e+02,8.886327099999999923e-01
1.270000000000000000e+02,8.872988200000000436e-01
1.280000000000000000e+02,8.859603999999999813e-01
1.290000000000000000e+02,8.846196499999999796e-01
1.300000000000000000e+02,8.832769999999999788e-01
1.310000000000000000e+02,8.819320200000000387e-01
1.320000000000000000e+02,8.805844200000000344e-01
1.330000000000000000e+02,8.792337799999999648e-01
1.340000000000000000e+02,8.778795600000000032e-01
1.350000000000000000e+02,8.765214700000000247e-01
1.360000000000000000e+02,8.751590799999999781e-01
1.370000000000000000e+02,8.737921699999999792e-01
1.380000000000000000e+02,8.724203699999999451e-01
1.390000000000000000e+02,8.710433800000000337e-01
1.400000000000000000e+02,8.696609699999999776e-01
1.410000000000000000e+02,8.682729000000000141e-01
1.420000000000000000e+02,8.668788099999999996e-01
1.430000000000000000e+02,8.654785799999999973e-01
1.440000000000000000e+02,8.640719700000000225e-01
1.450000000000000000e+02,8.626586800000000110e-01
1.460000000000000000e+02,8.612385999999999653e-01
1.470000000000000000e+02,8.598113699999999637e-01
1.480000000000000000e+02,8.583769199999999877e-01
1.490000000000000000e+02,8.569349099999999941e-01
1.500000000000000000e+02,8.554850800000000088e-01
1.510000000000000000e+02,8.540273299999999734e-01
1.520000000000000000e+02,8.525614099999999640e-01
1.530000000000000000e+02,8.510870299999999666e-01
1.540000000000000000e+02,8.496039499999999967e-01
1.550000000000000000e+02,8.481119299999999583e-01
1.560000000000000000e+02,8.466107800000000072e-01
1.570000000000000000e+02,8.451001000000000207e-01
1.580000000000000000e+02,8.435797699999999510e-01
1.590000000000000000e+02,8.420493599999999690e-01
1.600000000000000000e+02,8.405086400000000291e-01
1.610000000000000000e+02,8.389573700000000356e-01
1.620000000000000000e+02,8.373951899999999560e-01
1.630000000000000000e+02,8.358217500000000300e-01
1.640000000000000000e+02,8.342368000000000006e-01
1.650000000000000000e+02,8.326399300000000281e-01
1.660000000000000000e+02,8.310307900000000192e-01
1.670000000000000000e+02,8.294090600000000313e-01
1.680000000000000000e+02,8.277742900000000237e-01
1.690000000000000000e+02,8.261260999999999743e-01
1.700000000000000000e+02,8.244641400000000120e-01
1.710000000000000000e+02,8.227878800000000270e-01
1.720000000000000000e+02,8.210969000000000184e-01
1.730000000000000000e+02,8.193907700000000460e-01
1.740000000000000000e+02,8.176690300000000189e-01
1.750000000000000000e+02,8.159311399999999992e-01
1.760000000000000000e+02,8.141765600000000491e-01
1.770000000000000000e+02,8.124048699999999457e-01
1.780000000000000000e+02,8.106153600000000070e-01
1.790000000000000000e+02,8.088075500000000417e-01
1.800000000000000000e+02,8.069809100000000512e-01
1.810000000000000000e+02,8.051347100000000312e-01
1.820000000000000000e+02,8.032684300000000333e-01
1.830000000000000000e+02,8.013814099999999607e-01
1.840000000000000000e+02,7.994729900000000500e-01
1.850000000000000000e+02,7.975425099999999823e-01
1.860000000000000000e+02,7.955893899999999519e-01
1.870000000000000000e+02,7.935907199999999717e-01
1.880000000000000000e+02,7.915720899999999505e-01
1.890000000000000000e+02,7.895313499999999651e-01
1.900000000000000000e+02,7.874670599999999965e-01
1.910000000000000000e+02,7.853782200000000158e-01
1.920000000000000000e+02,7.832639200000000024e-01
1.930000000000000000e+02,7.811233400000000549e-01
1.940000000000000000e+02,7.789558199999999655e-01
1.950000000000000000e+02,7.767608200000000185e-01
1.960000000000000000e+02,7.745378600000000224e-01
1.970000000000000000e+02,7.722864699999999472e-01
1.980000000000000000e+02,7.700064199999999692e-01
1.990000000000000000e+02,7.676974500000000035e-01
2.000000000000000000e+02,7.653594599999999915e-01
2.010000000000000000e+02,7.629926200000000103e-01
2.020000000000000000e+02,7.605969900000000283e-01
2.030000000000000000e+02,7.581729299999999672e-01
2.040000000000000000e+02,7.557209700000000474e-01
2.050000000000000000e+02,7.532417200000000035e-01
2.060000000000000000e+02,7.507359399999999905e-01
2.070000000000000000e+02,7.482045899999999472e-01
2.080000000000000000e+02,7.456488599999999689e-01
2.090000000000000000e+02,7.430698900000000107e-01
2.100000000000000000e+02,7.404692200000000391e-01
2.110000000000000000e+02,7.378482800000000230e-01
2.120000000000000000e+02,7.352088700000000143e-01
2.130000000000000000e+02,7.325527699999999642e-01
2.140000000000000000e+02,7.298818799999999829e-01
2.150000000000000000e+02,7.271981800000000273e-01
2.160000000000000000e+02,7.245038200000000206e-01
2.170000000000000000e+02,7.218008000000000202e-01
2.180000000000000000e+02,7.190914200000000367e-01
2.190000000000000000e+02,7.163777900000000143e-01
2.200000000000000000e+02,7.136621499999999951e-01
2.210000000000000000e+02,7.109466800000000530e-01
2.220000000000000000e+02,7.082335400000000503e-01
2.230000000000000000e+02,7.055249199999999998e-01
2.240000000000000000e+02,7.028229799999999861e-01
2.250000000000000000e+02,7.001296900000000267e-01
2.260000000000000000e+02,6.974288199999999494e-01
2.270000000000000000e+02,6.947433400000000425e-01
2.280000000000000000e+02,6.920744199999999680e-01
2.290000000000000000e+02,6.894234999999999669e-01
2.300000000000000000e+02,6.867920800000000270e-01
2.310000000000000000e+02,6.841818100000000014e-01
2.320000000000000000e+02,6.815941899999999887e-01
2.330000000000000000e+02,6.790308999999999928e-01
2.340000000000000000e+02,6.764934700000000412e-01
2.350000000000000000e+02,6.739832799999999624e-01
2.360000000000000000e+02,6.715019899999999931e-01
2.370000000000000000e+02,6.690509300000000437e-01
2.380000000000000000e+02,6.666314599999999535e-01
2.390000000000000000e+02,6.642450699999999930e-01
2.400000000000000000e+02,6.618929500000000354e-01
2.410000000000000000e+02,6.595764200000000521e-01
2.420000000000000000e+02,6.572967199999999455e-01
2.430000000000000000e+02,6.550549300000000352e-01
2.440000000000000000e+02,6.528523000000000520e-01
2.450000000000000000e+02,6.506897799999999954e-01
2.460000000000000000e+02,6.485683899999999946e-01
2.470000000000000000e+02,6.464890199999999698e-01
2.480000000000000000e+02,6.444525700000000024e-01
2.490000000000000000e+02,6.424598099999999645e-01
2.500000000000000000e+02,6.405113300000000454e-01
2.510000000000000000e+02,6.386077999999999477e-01
2.520000000000000000e+02,6.367496299999999554e-01
2.530000000000000000e+02,6.349373499999999559e-01
2.540000000000000000e+02,6.331711399999999657e-01
2.550000000000000000e+02,6.314513099999999879e-01
2.560000000000000000e+02,6.297778499999999724e-01
2.570000000000000000e+02,6.281508799999999670e-01
2.580000000000000000e+02,6.265701700000000374e-01
2.590000000000000000e+02,6.250356400000000034e-01
2.600000000000000000e+02,6.235469599999999835e-01
2.610000000000000000e+02,6.221036300000000185e-01
2.620000000000000000e+02,6.207053700000000340e-01
2.630000000000000000e+02,6.193514500000000256e-01
2.640000000000000000e+02,6.180413399999999946e-01
2.650000000000000000e+02,6.167742600000000186e-01
2.660000000000000000e+02,6.155494500000000535e-01
2.670000000000000000e+02,6.143661099999999653e-01
2.680000000000000000e+02,6.132234300000000138e-01
2.690000000000000000e+02,6.121203299999999903e-01
2.700000000000000000e+02,6.110559100000000354e-01
2.710000000000000000e+02,6.100292200000000387e-01
2.720000000000000000e+02,6.090391299999999841e-01
2.730000000000000000e+02,6.080847400000000125e-01
2.740000000000000000e+02,6.071649799999999653e-01
2.750000000000000000e+02,6.062784799999999530e-01
2.760000000000000000e+02,6.054243400000000053e-01
2.770000000000000000e+02,6.046015000000000139e-01
2.780000000000000000e+02,6.038089399999999607e-01
2.790000000000000000e+02,6.030455799999999700e-01
2.800000000000000000e+02,6.023105399999999499e-01
2.810000000000000000e+02,6.016027299999999745e-01
2.820000000000000000e+02,6.009212099999999834e-01
2.830000000000000000e+02,6.002649700000000088e-01
2.840000000000000000e+02,5.996331000000000300e-01
2.850000000000000000e+02,5.990246500000000474e-01
2.860000000000000000e+02,5.984386800000000006e-01
2.870000000000000000e+02,5.978744000000000280e-01
2.880000000000000000e+02,5.973309300000000377e-01
2.890000000000000000e+02,5.968074199999999774e-01
2.900000000000000000e+02,5.963031600000000543e-01
2.910000000000000000e+02,5.958172099999999860e-01
2.920000000000000000e+02,5.953490099999999563e-01
2.930000000000000000e+02,5.948977500000000029e-01
2.940000000000000000e+02,5.944627500000000397e-01
2.950000000000000000e+02,5.940433699999999595e-01
2.960000000000000000e+02,5.936390200000000172e-01
2.970000000000000000e+02,5.932490200000000158e-01
2.980000000000000000e+02,5.928727999999999776e-01
2.990000000000000000e+02,5.925097499999999462e-01
3.000000000000000000e+02,5.921594500000000316e-01
3.010000000000000000e+02,5.918213100000000448e-01
3.020000000000000000e+02,5.914948599999999557e-01
3.030000000000000000e+02,5.911796099999999665e-01
3.040000000000000000e+02,5.908751500000000156e-01
3.050000000000000000e+02,5.905810000000000226e-01
3.060000000000000000e+02,5.902967500000000367e-01
3.070000000000000000e+02,5.900220299999999751e-01
3.080000000000000000e+02,5.897564299999999982e-01
3.090000000000000000e+02,5.894995899999999622e-01
3.100000000000000000e+02,5.892512199999999645e-01
3.110000000000000000e+02,5.890109500000000331e-01
3.120000000000000000e+02,5.887784400000000140e-01
3.130000000000000000e+02,5.885533699999999646e-01
3.140000000000000000e+02,5.883355700000000299e-01
3.150000000000000000e+02,5.881246300000000371e-01
3.160000000000000000e+02,5.879203100000000015e-01
3.170000000000000000e+02,5.877224199999999676e-01
3.180000000000000000e+02,5.875306700000000326e-01
3.190000000000000000e+02,5.873448300000000399e-01
3.200000000000000000e+02,5.871646999999999839e-01
3.210000000000000000e+02,5.869900599999999802e-01
3.220000000000000000e+02,5.868206599999999939e-01
3.230000000000000000e+02,5.866563900000000276e-01
3.240000000000000000e+02,5.864969500000000169e-01
3.250000000000000000e+02,5.863422799999999935e-01
3.260000000000000000e+02,5.861921300000000334e-01
3.270000000000000000e+02,5.860463399999999989e-01
3.280000000000000000e+02,5.859047800000000139e-01
3.290000000000000000e+02,5.857672699999999510e-01
3.300000000000000000e+02,5.856337499999999530e-01
3.310000000000000000e+02,5.855039399999999450e-01
3.320000000000000000e+02,5.853778099999999984e-01
3.330000000000000000e+02,5.852552699999999941e-01
3.340000000000000000e+02,5.851360599999999579e-01
3.350000000000000000e+02,5.850201200000000323e-01
3.360000000000000000e+02,5.849074100000000165e-01
3.370000000000000000e+02,5.847977399999999548e-01
3.380000000000000000e+02,5.846910499999999900e-01
3.390000000000000000e+02,5.845871599999999946e-01
3.400000000000000000e+02,5.844860699999999687e-01
3.410000000000000000e+02,5.843876599999999755e-01
3.420000000000000000e+02,5.842918200000000173e-01
3.430000000000000000e+02,5.841984700000000252e-01
3.440000000000000000e+02,5.841075799999999596e-01
3.450000000000000000e+02,5.840190100000000051e-01
3.460000000000000000e+02,5.839326400000000028e-01
3.470000000000000000e+02,5.838485399999999714e-01
3.480000000000000000e+02,5.837665199999999555e-01
3.490000000000000000e+02,5.836865300000000367e-01
3.500000000000000000e+02,5.836085699999999932e-01
3.510000000000000000e+02,5.835325099999999487e-01
3.520000000000000000e+02,5.834582999999999853e-01
3.530000000000000000e+02,5.833859399999999917e-01
3.540000000000000000e+02,5.833153100000000313e-01
3.550000000000000000e+02,5.832463500000000245e-01
3.560000000000000000e+02,5.831790599999999714e-01
3.570000000000000000e+02,5.831133699999999642e-01
3.580000000000000000e+02,5.830492400000000242e-01
3.590000000000000000e+02,5.829865300000000028e-01
3.600000000000000000e+02,5.829253199999999691e-01
3.610000000000000000e+02,5.828655400000000153e-01
3.620000000000000000e+02,5.828071200000000118e-01
3.630000000000000000e+02,5.827500199999999797e-01
3.640000000000000000e+02,5.826942299999999797e-01
3.650000000000000000e+02,5.826396900000000434e-01
3.660000000000000000e+02,5.825863500000000306e-01
3.670000000000000000e+02,5.825341899999999518e-01
3.680000000000000000e+02,5.824832300000000185e-01
3.690000000000000000e+02,5.824333400000000216e-01
3.700000000000000000e+02,5.823845300000000114e-01
3.710000000000000000e+02,5.823367799999999983e-01
3.720000000000000000e+02,5.822900500000000035e-01
3.730000000000000000e+02,5.822443400000000269e-01
3.740000000000000000e+02,5.821995699999999996e-01
3.750000000000000000e+02,5.821557600000000221e-01
3.760000000000000000e+02,5.821128500000000150e-01
3.770000000000000000e+02,5.820708300000000390e-01
3.780000000000000000e+02,5.820296999999999832e-01
3.790000000000000000e+02,5.819894100000000403e-01
3.800000000000000000e+02,5.819499500000000491e-01
3.810000000000000000e+02,5.819112699999999805e-01
3.820000000000000000e+02,5.818733600000000061e-01
3.830000000000000000e+02,5.818362200000000151e-01
3.840000000000000000e+02,5.817998100000000283e-01
3.850000000000000000e+02,5.817641599999999746e-01
3.860000000000000000e+02,5.817291700000000176e-01
3.870000000000000000e+02,5.816948400000000463e-01
3.880000000000000000e+02,5.816612199999999788e-01
3.890000000000000000e+02,5.816282600000000080e-01
3.900000000000000000e+02,5.815959000000000545e-01
3.910000000000000000e+02,5.815641299999999569e-01
3.920000000000000000e+02,5.815330100000000169e-01
3.930000000000000000e+02,5.815025000000000333e-01
3.940000000000000000e+02,5.814725200000000482e-01
3.950000000000000000e+02,5.814430699999999508e-01
3.960000000000000000e+02,5.814142199999999816e-01
3.970000000000000000e+02,5.813858499999999818e-01
3.980000000000000000e+02,5.813580200000000309e-01
3.990000000000000000e+02,5.813307199999999675e-01
4.000000000000000000e+02,5.813038900000000453e-01
4.010000000000000000e+02,5.812774899999999523e-01
4.020000000000000000e+02,5.812516199999999689e-01
4.030000000000000000e+02,5.812262299999999549e-01
4.040000000000000000e+02,5.812012600000000528e-01
4.050000000000000000e+02,5.811766999999999905e-01
4.060000000000000000e+02,5.811526200000000086e-01
4.070000000000000000e+02,5.811288999999999483e-01
4.080000000000000000e+02,5.811056500000000291e-01
4.090000000000000000e+02,5.810827600000000315e-01
4.100000000000000000e+02,5.810602299999999554e-01
4.110000000000000000e+02,5.810381199999999913e-01
4.120000000000000000e+02,5.810164199999999779e-01
4.130000000000000000e+02,5.809950200000000287e-01
4.140000000000000000e+02,5.809739800000000010e-01
4.150000000000000000e+02,5.809533000000000058e-01
4.160000000000000000e+02,5.809329699999999930e-01
4.170000000000000000e+02,5.809129499999999835e-01
4.180000000000000000e+02,5.808932799999999563e-01
4.190000000000000000e+02,5.808739699999999617e-01
4.200000000000000000e+02,5.808548900000000126e-01
4.210000000000000000e+02,5.808361800000000352e-01
4.220000000000000000e+02,5.808176999999999923e-01
4.230000000000000000e+02,5.807995799999999820e-01
4.240000000000000000e+02,5.807816999999999563e-01
4.250000000000000000e+02,5.807641099999999446e-01
4.260000000000000000e+02,5.807467699999999677e-01
4.270000000000000000e+02,5.807297200000000048e-01
4.280000000000000000e+02,5.807129699999999950e-01
4.290000000000000000e+02,5.806964000000000015e-01
4.300000000000000000e+02,5.806801299999999610e-01
4.310000000000000000e+02,5.806641000000000163e-01
4.320000000000000000e+02,5.806483000000000061e-01
4.330000000000000000e+02,5.806328099999999992e-01
4.340000000000000000e+02,5.806174899999999583e-01
4.350000000000000000e+02,5.806023500000000448e-01
4.360000000000000000e+02,5.805875099999999733e-01
4.370000000000000000e+02,5.805728399999999789e-01
4.380000000000000000e+02,5.805584200000000195e-01
4.390000000000000000e+02,5.805441700000000260e-01
4.400000000000000000e+02,5.805301699999999565e-01
4.410000000000000000e+02,5.805163399999999640e-01
4.420000000000000000e+02,5.805026899999999879e-01
4.430000000000000000e+02,5.804892799999999964e-01
4.440000000000000000e+02,5.804760500000000212e-01
4.450000000000000000e+02,5.804629900000000120e-01
4.460000000000000000e+02,5.804501199999999583e-01
4.470000000000000000e+02,5.804374199999999817e-01
4.480000000000000000e+02,5.804249000000000214e-01
4.490000000000000000e+02,5.804125700000000165e-01
4.500000000000000000e+02,5.804003500000000093e-01
4.510000000000000000e+02,5.803883699999999868e-01
4.520000000000000000e+02,5.803765100000000121e-01
4.530000000000000000e+02,5.803648200000000035e-01
4.540000000000000000e+02,5.803533199999999503e-01
4.550000000000000000e+02,5.803419399999999451e-01
4.560000000000000000e+02,5.803306700000000484e-01
4.570000000000000000e+02,5.803196400000000255e-01
4.580000000000000000e+02,5.803086800000000212e-01
4.590000000000000000e+02,5.802978899999999829e-01
4.600000000000000000e+02,5.802872799999999609e-01
4.610000000000000000e+02,5.802767300000000184e-01
4.620000000000000000e+02,5.802663599999999811e-01
4.630000000000000000e+02,5.802561600000000208e-01
4.640000000000000000e+02,5.802460299999999682e-01
4.650000000000000000e+02,5.802360800000000429e-01
4.660000000000000000e+02,5.802261800000000358e-01
4.670000000000000000e+02,5.802164699999999842e-01
4.680000000000000000e+02,5.802068700000000412e-01
4.690000000000000000e+02,5.801973900000000350e-01
4.700000000000000000e+02,5.801879800000000476e-01
4.710000000000000000e+02,5.801787400000000261e-01
4.720000000000000000e+02,5.801696200000000525e-01
4.730000000000000000e+02,5.801605600000000473e-01
4.740000000000000000e+02,5.801516799999999474e-01
4.750000000000000000e+02,5.801428600000000380e-01
4.760000000000000000e+02,5.801341500000000151e-01
4.770000000000000000e+02,5.801255100000000109e-01
4.780000000000000000e+02,5.801170500000000230e-01
4.790000000000000000e+02,5.801086399999999532e-01
4.800000000000000000e+02,5.801003599999999816e-01
4.810000000000000000e+02,5.800921300000000391e-01
4.820000000000000000e+02,5.800840299999999727e-01
4.830000000000000000e+02,5.800760400000000150e-01
4.840000000000000000e+02,5.800681100000000257e-01
4.850000000000000000e+02,5.800602999999999732e-01
4.860000000000000000e+02,5.800525500000000001e-01
4.870000000000000000e+02,5.800449300000000141e-01
4.880000000000000000e+02,5.800373599999999463e-01
4.890000000000000000e+02,5.800298999999999872e-01
4.900000000000000000e+02,5.800225100000000467e-01
4.910000000000000000e+02,5.800151799999999636e-01
4.920000000000000000e+02,5.800079700000000393e-01
4.930000000000000000e+02,5.800008199999999725e-01
4.940000000000000000e+02,5.799937800000000143e-01
4.950000000000000000e+02,5.799867499999999954e-01
4.960000000000000000e+02,5.799798400000000242e-01
4.970000000000000000e+02,5.799730400000000508e-01
4.980000000000000000e+02,5.799662500000000165e-01
4.990000000000000000e+02,5.799595699999999798e-01
5.000000000000000000e+02,5.799529599999999618e-01
5.010000000000000000e+02,5.799464600000000525e-01
5.020000000000000000e+02,5.799399600000000321e-01
5.030000000000000000e+02,5.799335799999999486e-01
5.040000000000000000e+02,5.799272100000000263e-01
5.050000000000000000e+02,5.799209499999999906e-01
5.060000000000000000e+02,5.799147500000000344e-01
5.070000000000000000e+02,5.799086100000000465e-01
5.080000000000000000e+02,5.799025300000000271e-01
5.090000000000000000e+02,5.798965099999999762e-01
5.100000000000000000e+02,5.798906099999999730e-01
5.110000000000000000e+02,5.798847099999999699e-01
5.120000000000000000e+02,5.798788700000000462e-01
5.130000000000000000e+02,5.798730899999999799e-01
5.140000000000000000e+02,5.798673600000000539e-01
5.150000000000000000e+02,5.798617600000000039e-01
5.160000000000000000e+02,5.798561599999999538e-01
5.170000000000000000e+02,5.798506100000000441e-01
5.180000000000000000e+02,5.798451300000000419e-01
5.190000000000000000e+02,5.798397100000000082e-01
5.200000000000000000e+02,5.798343400000000036e-01
5.210000000000000000e+02,5.798289800000000493e-01
5.220000000000000000e+02,5.798237299999999816e-01
5.230000000000000000e+02,5.798184899999999642e-01
5.240000000000000000e+02,5.798133600000000554e-01
5.250000000000000000e+02,5.798082399999999748e-01
5.260000000000000000e+02,5.798031700000000344e-01
5.270000000000000000e+02,5.797981599999999514e-01
5.280000000000000000e+02,5.797931600000000296e-01
5.290000000000000000e+02,5.797882100000000261e-01
5.300000000000000000e+02,5.797833799999999593e-01
5.310000000000000000e+02,5.797785500000000036e-01
5.320000000000000000e+02,5.797737200000000479e-01
5.330000000000000000e+02,5.797690199999999683e-01
5.340000000000000000e+02,5.797643099999999494e-01
5.350000000000000000e+02,5.797596600000000100e-01
5.360000000000000000e+02,5.797550700000000390e-01
5.370000000000000000e+02,5.797504799999999570e-01
5.380000000000000000e+02,5.797459499999999544e-01
5.390000000000000000e+02,5.797414800000000312e-01
5.400000000000000000e+02,5.797370099999999971e-01
5.410000000000000000e+02,5.797326000000000423e-01
5.420000000000000000e+02,5.797282499999999450e-01
5.430000000000000000e+02,5.797239499999999879e-01
5.440000000000000000e+02,5.797196599999999700e-01
5.450000000000000000e+02,5.797153699999999521e-01
5.460000000000000000e+02,5.797111999999999821e-01
5.470000000000000000e+02,5.797070300000000120e-01
5.480000000000000000e+02,5.797028499999999918e-01
5.490000000000000000e+02,5.796987999999999586e-01
5.500000000000000000e+02,5.796946899999999570e-01
5.510000000000000000e+02,5.796906899999999530e-01
5.520000000000000000e+02,5.796866999999999992e-01
5.530000000000000000e+02,5.796827100000000454e-01
5.540000000000000000e+02,5.796788299999999783e-01
5.550000000000000000e+02,5.796748999999999929e-01
5.560000000000000000e+02,5.796710800000000052e-01
5.570000000000000000e+02,5.796672099999999883e-01
5.580000000000000000e+02,5.796634600000000193e-01
5.590000000000000000e+02,5.796597000000000000e-01
5.600000000000000000e+02,5.796559500000000309e-01
5.610000000000000000e+02,5.796522499999999800e-01
5.620000000000000000e+02,5.796485500000000401e-01
5.630000000000000000e+02,5.796449200000000079e-01
5.640000000000000000e+02,5.796413400000000049e-01
5.650000000000000000e+02,5.796377700000000521e-01
5.660000000000000000e+02,5.796341900000000491e-01
5.670000000000000000e+02,5.796306700000000145e-01
5.680000000000000000e+02,5.796272199999999986e-01
5.690000000000000000e+02,5.796237600000000434e-01
5.700000000000000000e+02,5.796202999999999772e-01
5.710000000000000000e+02,5.796168999999999905e-01
5.720000000000000000e+02,5.796135100000000540e-01
5.730000000000000000e+02,5.796101700000000356e-01
5.740000000000000000e+02,5.796068300000000173e-01
5.750000000000000000e+02,5.796035499999999674e-01
5.760000000000000000e+02,5.796002700000000285e-01
5.770000000000000000e+02,5.795970599999999973e-01
5.780000000000000000e+02,5.795937799999999473e-01
5.790000000000000000e+02,5.795906199999999453e-01
5.800000000000000000e+02,5.795874600000000543e-01
5.810000000000000000e+02,5.795843000000000522e-01
5.820000000000000000e+02,5.795811400000000502e-01
5.830000000000000000e+02,5.795780400000000165e-01
5.840000000000000000e+02,5.795749999999999513e-01
5.850000000000000000e+02,5.795719599999999971e-01
5.860000000000000000e+02,5.795689200000000429e-01
5.870000000000000000e+02,5.795658799999999777e-01
5.880000000000000000e+02,5.795628999999999920e-01
5.890000000000000000e+02,5.795599799999999746e-01
5.900000000000000000e+02,5.795569999999999888e-01
5.910000000000000000e+02,5.795541400000000509e-01
5.920000000000000000e+02,5.795512200000000336e-01
5.930000000000000000e+02,5.795483599999999846e-01
5.940000000000000000e+02,5.795455000000000467e-01
5.950000000000000000e+02,5.795426399999999978e-01
5.960000000000000000e+02,5.795398400000000283e-01
5.970000000000000000e+02,5.795370300000000086e-01
5.980000000000000000e+02,5.795342900000000075e-01
5.990000000000000000e+02,5.795315500000000064e-01