# Time [s], Temperature [C]
1.000000000000000000e+00,2.500000000000000000e+01
2.000000000000000000e+00,2.500000000000000000e+01
3.000000000000000000e+00,2.500000000000000000e+01
4.000000000000000000e+00,2.500000000000000000e+01
5.000000000000000000e+00,2.500000000000000000e+01
6.000000000000000000e+00,2.500000000000000000e+01
7.000000000000000000e+00,2.500000199999999850e+01
8.000000000000000000e+00,2.500000999999999962e+01
9.000000000000000000e+00,2.500002900000000139e+01
1.000000000000000000e+01,2.500008199999999903e+01
1.100000000000000000e+01,2.500020800000000065e+01
1.200000000000000000e+01,2.500046899999999894e+01
1.300000000000000000e+01,2.500097500000000039e+01
1.400000000000000000e+01,2.500186700000000073e+01
1.500000000000000000e+01,2.500334900000000005e+01
1.600000000000000000e+01,2.500566299999999842e+01
1.700000000000000000e+01,2.500910199999999861e+01
1.800000000000000000e+01,2.501399999999999935e+01
1.900000000000000000e+01,2.502071799999999868e+01
2.000000000000000000e+01,2.502964199999999906e+01
2.100000000000000000e+01,2.504117400000000160e+01
2.200000000000000000e+01,2.505571399999999826e+01
2.300000000000000000e+01,2.507366199999999878e+01
2.400000000000000000e+01,2.509540900000000008e+01
2.500000000000000000e+01,2.512133199999999889e+01
2.600000000000000000e+01,2.515178299999999822e+01
2.700000000000000000e+01,2.518709199999999981e+01
2.800000000000000000e+01,2.522756800000000155e+01
2.900000000000000000e+01,2.527348900000000143e+01
3.000000000000000000e+01,2.532510800000000017e+01
3.100000000000000000e+01,2.538264500000000012e+01
3.200000000000000000e+01,2.544629700000000128e+01
3.300000000000000000e+01,2.551623500000000178e+01
3.400000000000000000e+01,2.559260400000000146e+01
3.500000000000000000e+01,2.567552200000000084e+01
3.600000000000000000e+01,2.576508499999999913e+01
3.700000000000000000e+01,2.586136799999999880e+01
3.800000000000000000e+01,2.596442400000000106e+01
3.900000000000000000e+01,2.607429099999999877e+01
4.000000000000000000e+01,2.619098500000000129e+01
4.100000000000000000e+01,2.631450999999999851e+01
4.200000000000000000e+01,2.644485099999999989e+01
4.300000000000000000e+01,2.658198499999999953e+01
4.400000000000000000e+01,2.672587400000000102e+01
4.500000000000000000e+01,2.687646900000000016e+01
4.600000000000000000e+01,2.703371200000000130e+01
4.700000000000000000e+01,2.719753800000000155e+01
4.800000000000000000e+01,2.736787199999999842e+01
4.900000000000000000e+01,2.754463600000000056e+01
5.000000000000000000e+01,2.772773700000000119e+01
5.100000000000000000e+01,2.791709099999999921e+01
5.200000000000000000e+01,2.811259499999999889e+01
5.300000000000000000e+01,2.831415399999999849e+01
5.400000000000000000e+01,2.852166199999999918e+01
5.500000000000000000e+01,2.873501399999999961e+01
5.600000000000000000e+01,2.895410199999999890e+01
5.700000000000000000e+01,2.917881799999999970e+01
5.800000000000000000e+01,2.940904600000000002e+01
5.900000000000000000e+01,2.964468000000000103e+01
6.000000000000000000e+01,2.988560700000000026e+01
6.100000000000000000e+01,3.013170799999999971e+01
6.200000000000000000e+01,3.038288100000000114e+01
6.300000000000000000e+01,3.063900399999999991e+01
6.400000000000000000e+01,3.089996500000000168e+01
6.500000000000000000e+01,3.116566100000000006e+01
6.600000000000000000e+01,3.143597400000000164e+01
6.700000000000000000e+01,3.171079299999999890e+01
6.800000000000000000e+01,3.199001300000000114e+01
6.900000000000000000e+01,3.227352499999999935e+01
7.000000000000000000e+01,3.256122200000000078e+01
7.100000000000000000e+01,3.285300399999999854e+01
7.200000000000000000e+01,3.314875800000000083e+01
7.300000000000000000e+01,3.344839100000000087e+01
7.400000000000000000e+01,3.375179299999999927e+01
7.500000000000000000e+01,3.405887599999999793e+01
7.600000000000000000e+01,3.436952999999999747e+01
7.700000000000000000e+01,3.468366999999999933e+01
7.800000000000000000e+01,3.500119399999999814e+01
7.900000000000000000e+01,3.532201799999999992e+01
8.000000000000000000e+01,3.564604599999999834e+01
8.100000000000000000e+01,3.597319000000000244e+01
8.200000000000000000e+01,3.630336400000000197e+01
8.300000000000000000e+01,3.663647799999999677e+01
8.400000000000000000e+01,3.697244599999999792e+01
8.500000000000000000e+01,3.731120299999999901e+01
8.600000000000000000e+01,3.765265300000000082e+01
8.700000000000000000e+01,3.799671899999999880e+01
8.800000000000000000e+01,3.834333000000000169e+01
8.900000000000000000e+01,3.869240599999999830e+01
9.000000000000000000e+01,3.904387299999999783e+01
9.100000000000000000e+01,3.939765899999999732e+01
9.200000000000000000e+01,3.975370000000000203e+01
9.300000000000000000e+01,4.011191900000000032e+01
9.400000000000000000e+01,4.047225600000000156e+01
9.500000000000000000e+01,4.083463700000000074e+01
9.600000000000000000e+01,4.119899699999999854e+01
9.700000000000000000e+01,4.156528099999999881e+01
9.800000000000000000e+01,4.193342200000000020e+01
9.900000000000000000e+01,4.230335600000000085e+01
1.000000000000000000e+02,4.267503700000000322e+01
1.010000000000000000e+02,4.304839700000000136e+01
1.020000000000000000e+02,4.342338199999999659e+01
1.030000000000000000e+02,4.379994200000000149e+01
1.040000000000000000e+02,4.417802799999999763e+01
1.050000000000000000e+02,4.455757499999999993e+01
1.060000000000000000e+02,4.493854100000000074e+01
1.070000000000000000e+02,4.532086900000000185e+01
1.080000000000000000e+02,4.570451400000000319e+01
1.090000000000000000e+02,4.608943200000000218e+01
1.100000000000000000e+02,4.647557100000000219e+01
1.110000000000000000e+02,4.686288799999999810e+01
1.120000000000000000e+02,4.725133900000000153e+01
1.130000000000000000e+02,4.764088399999999979e+01
1.140000000000000000e+02,4.803147899999999737e+01
1.150000000000000000e+02,4.842308400000000290e+01
1.160000000000000000e+02,4.881565899999999658e+01
1.170000000000000000e+02,4.920916400000000124e+01
1.180000000000000000e+02,4.960356099999999913e+01
1.190000000000000000e+02,4.999881700000000251e+01
1.200000000000000000e+02,5.039488999999999663e+01
1.210000000000000000e+02,5.079175200000000245e+01
1.220000000000000000e+02,5.118936200000000269e+01
1.230000000000000000e+02,5.158768799999999999e+01
1.240000000000000000e+02,5.198669799999999697e+01
1.250000000000000000e+02,5.238636000000000337e+01
1.260000000000000000e+02,5.278664799999999957e+01
1.270000000000000000e+02,5.318752299999999877e+01
1.280000000000000000e+02,5.358895900000000267e+01
1.290000000000000000e+02,5.399093200000000081e+01
1.300000000000000000e+02,5.439340599999999881e+01
1.310000000000000000e+02,5.479635999999999996e+01
1.320000000000000000e+02,5.519976400000000183e+01
1.330000000000000000e+02,5.560359199999999902e+01
1.340000000000000000e+02,5.600782000000000238e+01
1.350000000000000000e+02,5.641241800000000239e+01
1.360000000000000000e+02,5.681737100000000140e+01
1.370000000000000000e+02,5.722264899999999699e+01
1.380000000000000000e+02,5.762823099999999954e+01
1.390000000000000000e+02,5.803409200000000112e+01
1.400000000000000000e+02,5.844021599999999950e+01
1.410000000000000000e+02,5.884657700000000347e+01
1.420000000000000000e+02,5.925315499999999957e+01
1.430000000000000000e+02,5.965993100000000027e+01
1.440000000000000000e+02,6.006688700000000125e+01
1.450000000000000000e+02,6.047399899999999917e+01
1.460000000000000000e+02,6.088125200000000348e+01
1.470000000000000000e+02,6.128862800000000277e+01
1.480000000000000000e+02,6.169610600000000034e+01
1.490000000000000000e+02,6.210367600000000010e+01
1.500000000000000000e+02,6.251131099999999918e+01
1.510000000000000000e+02,6.291899899999999946e+01
1.520000000000000000e+02,6.332672500000000326e+01
1.530000000000000000e+02,6.373447000000000173e+01
1.540000000000000000e+02,6.414222700000000543e+01
1.550000000000000000e+02,6.454997299999999427e+01
1.560000000000000000e+02,6.495768700000000706e+01
1.570000000000000000e+02,6.536537199999999359e+01
1.580000000000000000e+02,6.577300999999999931e+01
1.590000000000000000e+02,6.618057299999999543e+01
1.600000000000000000e+02,6.658806599999999776e+01
1.610000000000000000e+02,6.699546800000000246e+01
1.620000000000000000e+02,6.740276299999999310e+01
1.630000000000000000e+02,6.780994400000000155e+01
1.640000000000000000e+02,6.821700300000000539e+01
1.650000000000000000e+02,6.862391700000000583e+01
1.660000000000000000e+02,6.903068500000000540e+01
1.670000000000000000e+02,6.943730200000000252e+01
1.680000000000000000e+02,6.984373499999999524e+01
1.690000000000000000e+02,7.024999200000000599e+01
1.700000000000000000e+02,7.065605899999999906e+01
1.710000000000000000e+02,7.106192799999999465e+01
1.720000000000000000e+02,7.146759000000000128e+01
1.730000000000000000e+02,7.187302400000000091e+01
1.740000000000000000e+02,7.227823600000000681e+01
1.750000000000000000e+02,7.268320500000000095e+01
1.760000000000000000e+02,7.308792900000000259e+01
1.770000000000000000e+02,7.349240100000000098e+01
1.780000000000000000e+02,7.389660600000000557e+01
1.790000000000000000e+02,7.430055199999999616e+01
1.800000000000000000e+02,7.470420799999999417e+01
1.810000000000000000e+02,7.510758199999999363e+01
1.820000000000000000e+02,7.551066600000000051e+01
1.830000000000000000e+02,7.591344499999999584e+01
1.840000000000000000e+02,7.631591799999999637e+01
1.850000000000000000e+02,7.671807900000000302e+01
1.860000000000000000e+02,7.711991899999999589e+01
1.870000000000000000e+02,7.752143100000000686e+01
1.880000000000000000e+02,7.792261499999999330e+01
1.890000000000000000e+02,7.832345599999999308e+01
1.900000000000000000e+02,7.872394599999999798e+01
1.910000000000000000e+02,7.912409200000000453e+01
1.920000000000000000e+02,7.952388000000000545e+01
1.930000000000000000e+02,7.992330900000000327e+01
1.940000000000000000e+02,8.032237200000000144e+01
1.950000000000000000e+02,8.072105399999999520e+01
1.960000000000000000e+02,8.111937000000000353e+01
1.970000000000000000e+02,8.151729600000000175e+01
1.980000000000000000e+02,8.191483300000000156e+01
1.990000000000000000e+02,8.231198100000000295e+01
2.000000000000000000e+02,8.270873299999999517e+01
2.010000000000000000e+02,8.310508699999999749e+01
2.020000000000000000e+02,8.350103000000000009e+01
2.030000000000000000e+02,8.389657599999999604e+01
2.040000000000000000e+02,8.429170200000000079e+01
2.050000000000000000e+02,8.468640899999999760e+01
2.060000000000000000e+02,8.508070399999999722e+01
2.070000000000000000e+02,8.547456400000000087e+01
2.080000000000000000e+02,8.586800399999999911e+01
2.090000000000000000e+02,8.626100900000000138e+01
2.100000000000000000e+02,8.665358000000000516e+01
2.110000000000000000e+02,8.704571500000000128e+01
2.120000000000000000e+02,8.743740800000000490e+01
2.130000000000000000e+02,8.782865099999999359e+01
2.140000000000000000e+02,8.821945200000000398e+01
2.150000000000000000e+02,8.860980200000000195e+01
2.160000000000000000e+02,8.899970199999999920e+01
2.170000000000000000e+02,8.938914499999999919e+01
2.180000000000000000e+02,8.977813000000000443e+01
2.190000000000000000e+02,9.016664900000000671e+01
2.200000000000000000e+02,9.055471000000000004e+01
2.210000000000000000e+02,9.094229900000000555e+01
2.220000000000000000e+02,9.132942199999999389e+01
2.230000000000000000e+02,9.171607199999999693e+01
2.240000000000000000e+02,9.210224900000000048e+01
2.250000000000000000e+02,9.248795300000000452e+01
2.260000000000000000e+02,9.287317699999999832e+01
2.270000000000000000e+02,9.325791900000000112e+01
2.280000000000000000e+02,9.364218099999999367e+01
2.290000000000000000e+02,9.402595499999999618e+01
2.300000000000000000e+02,9.440924800000000516e+01
2.310000000000000000e+02,9.479205299999999568e+01
2.320000000000000000e+02,9.517436999999999614e+01
2.330000000000000000e+02,9.555619000000000085e+01
2.340000000000000000e+02,9.593752299999999877e+01
2.350000000000000000e+02,9.631835900000000095e+01
2.360000000000000000e+02,9.669870000000000232e+01
2.370000000000000000e+02,9.707854500000000542e+01
2.380000000000000000e+02,9.745788600000000201e+01
2.390000000000000000e+02,9.783673100000000034e+01
2.400000000000000000e+02,9.821507300000000384e+01
2.410000000000000000e+02,9.859291799999999739e+01
2.420000000000000000e+02,9.897026099999999360e+01
2.430000000000000000e+02,9.934709200000000351e+01
2.440000000000000000e+02,9.972341900000000692e+01
2.450000000000000000e+02,1.000992399999999947e+02
2.460000000000000000e+02,1.004745499999999936e+02
2.470000000000000000e+02,1.008493500000000012e+02
2.480000000000000000e+02,1.012236300000000000e+02
2.490000000000000000e+02,1.015974099999999964e+02
2.500000000000000000e+02,1.019706800000000015e+02
2.510000000000000000e+02,1.023434299999999979e+02
2.520000000000000000e+02,1.027156599999999997e+02
2.530000000000000000e+02,1.030873799999999960e+02
2.540000000000000000e+02,1.034585799999999978e+02
2.550000000000000000e+02,1.038292699999999940e+02
2.560000000000000000e+02,1.041994300000000067e+02
2.570000000000000000e+02,1.045690900000000028e+02
2.580000000000000000e+02,1.049382200000000012e+02
2.590000000000000000e+02,1.053068300000000050e+02
2.600000000000000000e+02,1.056749300000000034e+02
2.610000000000000000e+02,1.060425000000000040e+02
2.620000000000000000e+02,1.064095499999999959e+02
2.630000000000000000e+02,1.067760700000000043e+02
2.640000000000000000e+02,1.071420700000000039e+02
2.650000000000000000e+02,1.075075499999999948e+02
2.660000000000000000e+02,1.078725000000000023e+02
2.670000000000000000e+02,1.082369300000000010e+02
2.680000000000000000e+02,1.086008300000000020e+02
2.690000000000000000e+02,1.089642099999999942e+02
2.700000000000000000e+02,1.093270700000000062e+02
2.710000000000000000e+02,1.096894000000000062e+02
2.720000000000000000e+02,1.100512099999999975e+02
2.730000000000000000e+02,1.104124800000000022e+02
2.740000000000000000e+02,1.107732299999999981e+02
2.750000000000000000e+02,1.111334499999999963e+02
2.760000000000000000e+02,1.114931399999999968e+02
2.770000000000000000e+02,1.118522999999999996e+02
2.780000000000000000e+02,1.122109399999999937e+02
2.790000000000000000e+02,1.125690500000000043e+02
2.800000000000000000e+02,1.129266400000000061e+02
2.810000000000000000e+02,1.132836900000000071e+02
2.820000000000000000e+02,1.136402099999999962e+02
2.830000000000000000e+02,1.139962100000000049e+02
2.840000000000000000e+02,1.143516699999999986e+02
2.850000000000000000e+02,1.147065999999999946e+02
2.860000000000000000e+02,1.150610000000000070e+02
2.870000000000000000e+02,1.154148799999999966e+02
2.880000000000000000e+02,1.157682300000000026e+02
2.890000000000000000e+02,1.161210499999999968e+02
2.900000000000000000e+02,1.164733399999999932e+02
2.910000000000000000e+02,1.168251000000000062e+02
2.920000000000000000e+02,1.171763200000000040e+02
2.930000000000000000e+02,1.175270199999999932e+02
2.940000000000000000e+02,1.178771799999999956e+02
2.950000000000000000e+02,1.182268100000000004e+02
2.960000000000000000e+02,1.185759299999999996e+02
2.970000000000000000e+02,1.189245099999999979e+02
2.980000000000000000e+02,1.192725499999999954e+02
2.990000000000000000e+02,1.196200699999999983e+02
3.000000000000000000e+02,1.199670600000000036e+02
3.010000000000000000e+02,1.203135199999999969e+02
3.020000000000000000e+02,1.206594500000000068e+02
3.030000000000000000e+02,1.210048400000000015e+02
3.040000000000000000e+02,1.213497200000000049e+02
3.050000000000000000e+02,1.216940500000000043e+02
3.060000000000000000e+02,1.220378699999999981e+02
3.070000000000000000e+02,1.223811599999999942e+02
3.080000000000000000e+02,1.227239100000000036e+02
3.090000000000000000e+02,1.230661300000000011e+02
3.100000000000000000e+02,1.234078300000000041e+02
3.110000000000000000e+02,1.237489900000000063e+02
3.120000000000000000e+02,1.240896400000000028e+02
3.130000000000000000e+02,1.244297499999999985e+02
3.140000000000000000e+02,1.247693299999999965e+02
3.150000000000000000e+02,1.251083900000000000e+02
3.160000000000000000e+02,1.254469100000000026e+02
3.170000000000000000e+02,1.257849099999999964e+02
3.180000000000000000e+02,1.261223899999999958e+02
3.190000000000000000e+02,1.264593399999999974e+02
3.200000000000000000e+02,1.267957600000000014e+02
3.210000000000000000e+02,1.271316499999999934e+02
3.220000000000000000e+02,1.274670299999999941e+02
3.230000000000000000e+02,1.278018600000000049e+02
3.240000000000000000e+02,1.281361799999999960e+02
3.250000000000000000e+02,1.284699699999999893e+02
3.260000000000000000e+02,1.288032399999999882e+02
3.270000000000000000e+02,1.291359699999999862e+02
3.280000000000000000e+02,1.294681999999999960e+02
3.290000000000000000e+02,1.297998800000000017e+02
3.300000000000000000e+02,1.301310599999999909e+02
3.310000000000000000e+02,1.304617000000000075e+02
3.320000000000000000e+02,1.307918200000000013e+02
3.330000000000000000e+02,1.311214099999999974e+02
3.340000000000000000e+02,1.314504900000000021e+02
3.350000000000000000e+02,1.317790400000000091e+02
3.360000000000000000e+02,1.321070699999999931e+02
3.370000000000000000e+02,1.324345700000000079e+02
3.380000000000000000e+02,1.327615700000000061e+02
3.390000000000000000e+02,1.330880300000000034e+02
3.400000000000000000e+02,1.334139600000000030e+02
3.410000000000000000e+02,1.337393800000000113e+02
3.420000000000000000e+02,1.340642899999999997e+02
3.430000000000000000e+02,1.343886699999999905e+02
3.440000000000000000e+02,1.347125200000000120e+02
3.450000000000000000e+02,1.350358699999999885e+02
3.460000000000000000e+02,1.353586899999999957e+02
3.470000000000000000e+02,1.356810000000000116e+02
3.480000000000000000e+02,1.360027900000000045e+02
3.490000000000000000e+02,1.363240499999999997e+02
3.500000000000000000e+02,1.366448100000000068e+02
3.510000000000000000e+02,1.369650399999999877e+02
3.520000000000000000e+02,1.372847600000000057e+02
3.530000000000000000e+02,1.376039600000000007e+02
3.540000000000000000e+02,1.379226400000000012e+02
3.550000000000000000e+02,1.382408100000000104e+02
3.560000000000000000e+02,1.385584599999999966e+02
3.570000000000000000e+02,1.388755999999999915e+02
3.580000000000000000e+02,1.391922099999999887e+02
3.590000000000000000e+02,1.395083300000000008e+02
3.600000000000000000e+02,1.398239299999999901e+02
3.610000000000000000e+02,1.401390100000000132e+02
3.620000000000000000e+02,1.404535799999999881e+02
3.630000000000000000e+02,1.407676400000000001e+02
3.640000000000000000e+02,1.410811799999999891e+02
3.650000000000000000e+02,1.413942099999999868e+02
3.660000000000000000e+02,1.417067299999999932e+02
3.670000000000000000e+02,1.420187400000000082e+02
3.680000000000000000e+02,1.423302300000000002e+02
3.690000000000000000e+02,1.426412200000000041e+02
3.700000000000000000e+02,1.429517099999999914e+02
3.710000000000000000e+02,1.432616700000000094e+02
3.720000000000000000e+02,1.435711400000000140e+02
3.730000000000000000e+02,1.438800799999999924e+02
3.740000000000000000e+02,1.441885200000000111e+02
3.750000000000000000e+02,1.444964600000000132e+02
3.760000000000000000e+02,1.448038899999999956e+02
3.770000000000000000e+02,1.451108099999999865e+02
3.780000000000000000e+02,1.454172199999999862e+02
3.790000000000000000e+02,1.457231400000000008e+02
3.800000000000000000e+02,1.460285499999999956e+02
3.810000000000000000e+02,1.463334399999999960e+02
3.820000000000000000e+02,1.466378300000000081e+02
3.830000000000000000e+02,1.469417300000000068e+02
3.840000000000000000e+02,1.472451000000000079e+02
3.850000000000000000e+02,1.475479899999999986e+02
3.860000000000000000e+02,1.478503699999999981e+02
3.870000000000000000e+02,1.481522400000000061e+02
3.880000000000000000e+02,1.484536099999999976e+02
3.890000000000000000e+02,1.487544900000000041e+02
3.900000000000000000e+02,1.490548599999999908e+02
3.910000000000000000e+02,1.493547399999999925e+02
3.920000000000000000e+02,1.496540999999999997e+02
3.930000000000000000e+02,1.499529699999999934e+02
3.940000000000000000e+02,1.502513399999999990e+02
3.950000000000000000e+02,1.505492099999999880e+02
3.960000000000000000e+02,1.508465899999999920e+02
3.970000000000000000e+02,1.511434600000000046e+02
3.980000000000000000e+02,1.514398300000000006e+02
3.990000000000000000e+02,1.517357199999999864e+02
4.000000000000000000e+02,1.520311000000000092e+02
4.010000000000000000e+02,1.523259899999999902e+02
4.020000000000000000e+02,1.526203800000000115e+02
4.030000000000000000e+02,1.529142799999999909e+02
4.040000000000000000e+02,1.532076700000000073e+02
4.050000000000000000e+02,1.535005800000000136e+02
4.060000000000000000e+02,1.537929800000000000e+02
4.070000000000000000e+02,1.540849200000000110e+02
4.080000000000000000e+02,1.543763399999999990e+02
4.090000000000000000e+02,1.546672700000000020e+02
4.100000000000000000e+02,1.549576999999999884e+02
4.110000000000000000e+02,1.552476699999999994e+02
4.120000000000000000e+02,1.555371199999999874e+02
4.130000000000000000e+02,1.558260799999999904e+02
4.140000000000000000e+02,1.561145600000000115e+02
4.150000000000000000e+02,1.564025399999999877e+02
4.160000000000000000e+02,1.566900500000000136e+02
4.170000000000000000e+02,1.569770499999999913e+02
4.180000000000000000e+02,1.572635799999999904e+02
4.190000000000000000e+02,1.575496100000000013e+02
4.200000000000000000e+02,1.578351600000000019e+02
4.210000000000000000e+02,1.581202099999999859e+02
4.220000000000000000e+02,1.584047899999999913e+02
4.230000000000000000e+02,1.586888700000000085e+02
4.240000000000000000e+02,1.589724699999999871e+02
4.250000000000000000e+02,1.592555800000000090e+02
4.260000000000000000e+02,1.595382099999999923e+02
4.270000000000000000e+02,1.598203599999999938e+02
4.280000000000000000e+02,1.601020200000000102e+02
4.290000000000000000e+02,1.603831900000000132e+02
4.300000000000000000e+02,1.606638900000000092e+02
4.310000000000000000e+02,1.609441099999999949e+02
4.320000000000000000e+02,1.612238499999999988e+02
4.330000000000000000e+02,1.615030999999999892e+02
4.340000000000000000e+02,1.617818599999999947e+02
4.350000000000000000e+02,1.620601499999999930e+02
4.360000000000000000e+02,1.623379700000000128e+02
4.370000000000000000e+02,1.626152999999999906e+02
4.380000000000000000e+02,1.628921499999999867e+02
4.390000000000000000e+02,1.631685200000000009e+02
4.400000000000000000e+02,1.634444100000000049e+02
4.410000000000000000e+02,1.637198300000000017e+02
4.420000000000000000e+02,1.639947799999999916e+02
4.430000000000000000e+02,1.642692399999999964e+02
4.440000000000000000e+02,1.645432299999999941e+02
4.450000000000000000e+02,1.648167400000000100e+02
4.460000000000000000e+02,1.650897799999999904e+02
4.470000000000000000e+02,1.653623499999999922e+02
4.480000000000000000e+02,1.656344499999999869e+02
4.490000000000000000e+02,1.659060699999999997e+02
4.500000000000000000e+02,1.661771999999999991e+02
4.510000000000000000e+02,1.664478799999999978e+02
4.520000000000000000e+02,1.667180799999999863e+02
4.530000000000000000e+02,1.669878099999999961e+02
4.540000000000000000e+02,1.672570599999999956e+02
4.550000000000000000e+02,1.675258499999999913e+02
4.560000000000000000e+02,1.677941700000000083e+02
4.570000000000000000e+02,1.680620299999999929e+02
4.580000000000000000e+02,1.683294099999999958e+02
4.590000000000000000e+02,1.685963099999999883e+02
4.600000000000000000e+02,1.688627500000000055e+02
4.610000000000000000e+02,1.691287199999999871e+02
4.620000000000000000e+02,1.693942399999999964e+02
4.630000000000000000e+02,1.696592899999999986e+02
4.640000000000000000e+02,1.699238599999999906e+02
4.650000000000000000e+02,1.701879700000000071e+02
4.660000000000000000e+02,1.704516099999999881e+02
4.670000000000000000e+02,1.707147999999999968e+02
4.680000000000000000e+02,1.709775099999999952e+02
4.690000000000000000e+02,1.712397799999999961e+02
4.700000000000000000e+02,1.715015699999999867e+02
4.710000000000000000e+02,1.717628899999999987e+02
4.720000000000000000e+02,1.720237600000000100e+02
4.730000000000000000e+02,1.722841600000000142e+02
4.740000000000000000e+02,1.725441099999999892e+02
4.750000000000000000e+02,1.728035999999999888e+02
4.760000000000000000e+02,1.730626200000000097e+02
4.770000000000000000e+02,1.733212000000000046e+02
4.780000000000000000e+02,1.735792999999999893e+02
4.790000000000000000e+02,1.738369399999999985e+02
4.800000000000000000e+02,1.740941500000000133e+02
4.810000000000000000e+02,1.743508799999999894e+02
4.820000000000000000e+02,1.746071499999999901e+02
4.830000000000000000e+02,1.748629799999999932e+02
4.840000000000000000e+02,1.751183499999999924e+02
4.850000000000000000e+02,1.753732599999999877e+02
4.860000000000000000e+02,1.756277200000000107e+02
4.870000000000000000e+02,1.758817099999999982e+02
4.880000000000000000e+02,1.761352699999999913e+02
4.890000000000000000e+02,1.763883700000000090e+02
4.900000000000000000e+02,1.766410099999999943e+02
4.910000000000000000e+02,1.768932000000000073e+02
4.920000000000000000e+02,1.771449399999999912e+02
4.930000000000000000e+02,1.773962400000000059e+02
4.940000000000000000e+02,1.776470799999999883e+02
4.950000000000000000e+02,1.778974599999999953e+02
4.960000000000000000e+02,1.781474000000000046e+02
4.970000000000000000e+02,1.783968999999999880e+02
4.980000000000000000e+02,1.786459499999999991e+02
4.990000000000000000e+02,1.788945500000000095e+02
5.000000000000000000e+02,1.791426800000000128e+02
5.010000000000000000e+02,1.793903999999999996e+02
5.020000000000000000e+02,1.796376500000000078e+02
5.030000000000000000e+02,1.798844599999999900e+02
5.040000000000000000e+02,1.801308300000000031e+02
5.050000000000000000e+02,1.803767499999999870e+02
5.060000000000000000e+02,1.806222400000000050e+02
5.070000000000000000e+02,1.808672599999999875e+02
5.080000000000000000e+02,1.811118600000000072e+02
5.090000000000000000e+02,1.813560200000000009e+02
5.100000000000000000e+02,1.815997199999999907e+02
5.110000000000000000e+02,1.818429899999999861e+02
5.120000000000000000e+02,1.820858200000000124e+02
5.130000000000000000e+02,1.823282000000000096e+02
5.140000000000000000e+02,1.825701400000000092e+02
5.150000000000000000e+02,1.828116599999999892e+02
5.160000000000000000e+02,1.830527299999999968e+02
5.170000000000000000e+02,1.832933700000000101e+02
5.180000000000000000e+02,1.835335499999999911e+02
5.190000000000000000e+02,1.837733200000000124e+02
5.200000000000000000e+02,1.840126500000000078e+02
5.210000000000000000e+02,1.842515300000000025e+02
5.220000000000000000e+02,1.844899699999999996e+02
5.230000000000000000e+02,1.847280000000000086e+02
5.240000000000000000e+02,1.849655799999999886e+02
5.250000000000000000e+02,1.852027300000000025e+02
5.260000000000000000e+02,1.854394499999999937e+02
5.270000000000000000e+02,1.856757399999999905e+02
5.280000000000000000e+02,1.859115899999999897e+02
5.290000000000000000e+02,1.861469999999999914e+02
5.300000000000000000e+02,1.863820000000000050e+02
5.310000000000000000e+02,1.866165599999999927e+02
5.320000000000000000e+02,1.868506899999999860e+02
5.330000000000000000e+02,1.870843999999999880e+02
5.340000000000000000e+02,1.873176699999999926e+02
5.350000000000000000e+02,1.875505200000000059e+02
5.360000000000000000e+02,1.877829399999999964e+02
5.370000000000000000e+02,1.880149399999999957e+02
5.380000000000000000e+02,1.882465100000000007e+02
5.390000000000000000e+02,1.884776300000000049e+02
5.400000000000000000e+02,1.887083599999999990e+02
5.410000000000000000e+02,1.889386399999999924e+02
5.420000000000000000e+02,1.891685200000000009e+02
5.430000000000000000e+02,1.893979500000000087e+02
5.440000000000000000e+02,1.896269800000000032e+02
5.450000000000000000e+02,1.898555800000000033e+02
5.460000000000000000e+02,1.900837600000000123e+02
5.470000000000000000e+02,1.903115099999999984e+02
5.480000000000000000e+02,1.905388499999999965e+02
5.490000000000000000e+02,1.907657600000000002e+02
5.500000000000000000e+02,1.909922500000000127e+02
5.510000000000000000e+02,1.912183400000000120e+02
5.520000000000000000e+02,1.914439800000000105e+02
5.530000000000000000e+02,1.916692400000000021e+02
5.540000000000000000e+02,1.918940599999999961e+02
5.550000000000000000e+02,1.921184700000000021e+02
5.560000000000000000e+02,1.923424500000000137e+02
5.570000000000000000e+02,1.925660200000000088e+02
5.580000000000000000e+02,1.927891799999999876e+02
5.590000000000000000e+02,1.930119300000000067e+02
5.600000000000000000e+02,1.932342700000000093e+02
5.610000000000000000e+02,1.934561899999999923e+02
5.620000000000000000e+02,1.936776900000000126e+02
5.630000000000000000e+02,1.938987899999999911e+02
5.640000000000000000e+02,1.941194800000000100e+02
5.650000000000000000e+02,1.943397500000000093e+02
5.660000000000000000e+02,1.945595999999999890e+02
5.670000000000000000e+02,1.947790500000000122e+02
5.680000000000000000e+02,1.949981099999999969e+02
5.690000000000000000e+02,1.952167399999999873e+02
5.700000000000000000e+02,1.954349699999999928e+02
5.710000000000000000e+02,1.956527900000000102e+02
5.720000000000000000e+02,1.958701900000000080e+02
5.730000000000000000e+02,1.960871899999999926e+02
5.740000000000000000e+02,1.963037999999999954e+02
5.750000000000000000e+02,1.965199900000000071e+02
5.760000000000000000e+02,1.967357800000000054e+02
5.770000000000000000e+02,1.969511599999999873e+02
5.780000000000000000e+02,1.971661499999999876e+02
5.790000000000000000e+02,1.973807199999999966e+02
5.800000000000000000e+02,1.975948899999999924e+02
5.810000000000000000e+02,1.978086700000000064e+02
5.820000000000000000e+02,1.980220500000000072e+02
5.830000000000000000e+02,1.982350199999999916e+02
5.840000000000000000e+02,1.984475899999999911e+02
5.850000000000000000e+02,1.986597600000000057e+02
5.860000000000000000e+02,1.988715400000000102e+02
5.870000000000000000e+02,1.990829200000000014e+02
5.880000000000000000e+02,1.992938800000000015e+02
5.890000000000000000e+02,1.995044699999999978e+02
5.900000000000000000e+02,1.997146500000000060e+02
5.910000000000000000e+02,1.999244400000000041e+02
5.920000000000000000e+02,2.001338299999999890e+02
5.930000000000000000e+02,2.003428199999999890e+02
5.940000000000000000e+02,2.005514200000000073e+02
5.950000000000000000e+02,2.007596299999999871e+02
5.960000000000000000e+02,2.009674500000000137e+02
5.970000000000000000e+02,2.011748699999999985e+02
5.980000000000000000e+02,2.013819000000000017e+02
5.990000000000000000e+02,2.015885299999999916e+02