# Time [s], Temperature [C]
1.000000000000000000e+00,2.500000000000000000e+01
2.000000000000000000e+00,2.500000000000000000e+01
3.000000000000000000e+00,2.500000000000000000e+01
4.000000000000000000e+00,2.500000199999999850e+01
5.000000000000000000e+00,2.500001100000000065e+01
6.000000000000000000e+00,2.500006099999999876e+01
7.000000000000000000e+00,2.500026099999999829e+01
8.000000000000000000e+00,2.500091000000000108e+01
9.000000000000000000e+00,2.500266500000000036e+01
1.000000000000000000e+01,2.500676899999999847e+01
1.100000000000000000e+01,2.501527799999999857e+01
1.200000000000000000e+01,2.503121799999999908e+01
1.300000000000000000e+01,2.505864100000000150e+01
1.400000000000000000e+01,2.510257100000000108e+01
1.500000000000000000e+01,2.517426499999999834e+01
1.600000000000000000e+01,2.527428600000000003e+01
1.700000000000000000e+01,2.541051300000000168e+01
1.800000000000000000e+01,2.558993299999999849e+01
1.900000000000000000e+01,2.581914099999999834e+01
2.000000000000000000e+01,2.610444800000000143e+01
2.100000000000000000e+01,2.645170999999999850e+01
2.200000000000000000e+01,2.686628899999999831e+01
2.300000000000000000e+01,2.735296100000000052e+01
2.400000000000000000e+01,2.791586300000000165e+01
2.500000000000000000e+01,2.855844300000000047e+01
2.600000000000000000e+01,2.928348700000000093e+01
2.700000000000000000e+01,3.009307499999999891e+01
2.800000000000000000e+01,3.098858800000000002e+01
2.900000000000000000e+01,3.197083999999999904e+01
3.000000000000000000e+01,3.304003099999999904e+01
3.100000000000000000e+01,3.419591100000000239e+01
3.200000000000000000e+01,3.543778999999999968e+01
3.300000000000000000e+01,3.676470599999999678e+01
3.400000000000000000e+01,3.817525100000000293e+01
3.500000000000000000e+01,3.966793100000000294e+01
3.600000000000000000e+01,4.124101300000000236e+01
3.700000000000000000e+01,4.289252900000000324e+01
3.800000000000000000e+01,4.462037699999999774e+01
3.900000000000000000e+01,4.642242799999999647e+01
4.000000000000000000e+01,4.829632600000000053e+01
4.100000000000000000e+01,5.023971600000000137e+01
4.200000000000000000e+01,5.225026299999999679e+01
4.300000000000000000e+01,5.432565699999999964e+01
4.400000000000000000e+01,5.646346299999999729e+01
4.500000000000000000e+01,5.866138800000000231e+01
4.600000000000000000e+01,6.091723999999999961e+01
4.700000000000000000e+01,6.322864200000000068e+01
4.800000000000000000e+01,6.559340699999999913e+01
4.900000000000000000e+01,6.800932299999999486e+01
5.000000000000000000e+01,7.047417400000000498e+01
5.100000000000000000e+01,7.298578600000000449e+01
5.200000000000000000e+01,7.554213699999999676e+01
5.300000000000000000e+01,7.814116699999999582e+01
5.400000000000000000e+01,8.078092999999999790e+01
5.500000000000000000e+01,8.345948799999999324e+01
5.600000000000000000e+01,8.617504900000000134e+01
5.700000000000000000e+01,8.892582699999999818e+01
5.800000000000000000e+01,9.171015900000000443e+01
5.900000000000000000e+01,9.452624500000000296e+01
6.000000000000000000e+01,9.737236799999999448e+01
6.100000000000000000e+01,1.002469200000000029e+02
6.200000000000000000e+01,1.031484200000000016e+02
6.300000000000000000e+01,1.060751599999999968e+02
6.400000000000000000e+01,1.090257000000000005e+02
6.500000000000000000e+01,1.119987699999999933e+02
6.600000000000000000e+01,1.149928199999999947e+02
6.700000000000000000e+01,1.180083800000000025e+02
6.800000000000000000e+01,1.210416400000000010e+02
6.900000000000000000e+01,1.240920799999999957e+02
7.000000000000000000e+01,1.271584200000000067e+02
7.100000000000000000e+01,1.302395799999999895e+02
7.200000000000000000e+01,1.333346999999999980e+02
7.300000000000000000e+01,1.364428100000000086e+02
7.400000000000000000e+01,1.395631099999999947e+02
7.500000000000000000e+01,1.426946900000000085e+02
7.600000000000000000e+01,1.458368800000000078e+02
7.700000000000000000e+01,1.489888799999999947e+02
7.800000000000000000e+01,1.521497699999999895e+02
7.900000000000000000e+01,1.553188000000000102e+02
8.000000000000000000e+01,1.584950900000000047e+02
8.100000000000000000e+01,1.616777299999999968e+02
8.200000000000000000e+01,1.648658399999999915e+02
8.300000000000000000e+01,1.680585199999999872e+02
8.400000000000000000e+01,1.712548400000000015e+02
8.500000000000000000e+01,1.744538699999999949e+02
8.600000000000000000e+01,1.776547199999999975e+02
8.700000000000000000e+01,1.808565700000000049e+02
8.800000000000000000e+01,1.840585599999999999e+02
8.900000000000000000e+01,1.872599500000000035e+02
9.000000000000000000e+01,1.904600100000000111e+02
9.100000000000000000e+01,1.936579999999999870e+02
9.200000000000000000e+01,1.968531999999999869e+02
9.300000000000000000e+01,2.000448499999999967e+02
9.400000000000000000e+01,2.032321300000000122e+02
9.500000000000000000e+01,2.064143200000000036e+02
9.600000000000000000e+01,2.095905899999999917e+02
9.700000000000000000e+01,2.127602400000000102e+02
9.800000000000000000e+01,2.159225299999999947e+02
9.900000000000000000e+01,2.190767400000000009e+02
1.000000000000000000e+02,2.222221800000000087e+02
1.010000000000000000e+02,2.253581499999999949e+02
1.020000000000000000e+02,2.284840199999999868e+02
1.030000000000000000e+02,2.315992599999999868e+02
1.040000000000000000e+02,2.347033199999999908e+02
1.050000000000000000e+02,2.377956200000000138e+02
1.060000000000000000e+02,2.408755600000000072e+02
1.070000000000000000e+02,2.439426300000000083e+02
1.080000000000000000e+02,2.469963199999999972e+02
1.090000000000000000e+02,2.500361499999999921e+02
1.100000000000000000e+02,2.530615200000000016e+02
1.110000000000000000e+02,2.560720499999999902e+02
1.120000000000000000e+02,2.590671100000000138e+02
1.130000000000000000e+02,2.620462999999999738e+02
1.140000000000000000e+02,2.650089100000000144e+02
1.150000000000000000e+02,2.679544099999999958e+02
1.160000000000000000e+02,2.708819899999999734e+02
1.170000000000000000e+02,2.737907700000000091e+02
1.180000000000000000e+02,2.766797500000000127e+02
1.190000000000000000e+02,2.795479700000000207e+02
1.200000000000000000e+02,2.823941300000000183e+02
1.210000000000000000e+02,2.852169799999999782e+02
1.220000000000000000e+02,2.880188600000000179e+02
1.230000000000000000e+02,2.907935499999999820e+02
1.240000000000000000e+02,2.935424199999999928e+02
1.250000000000000000e+02,2.962654999999999745e+02
1.260000000000000000e+02,2.989611199999999940e+02
1.270000000000000000e+02,3.016261900000000082e+02
1.280000000000000000e+02,3.042571699999999737e+02
1.290000000000000000e+02,3.068510999999999740e+02
1.300000000000000000e+02,3.094053999999999860e+02
1.310000000000000000e+02,3.119180000000000064e+02
1.320000000000000000e+02,3.143868699999999876e+02
1.330000000000000000e+02,3.168097799999999893e+02
1.340000000000000000e+02,3.191846300000000269e+02
1.350000000000000000e+02,3.215091199999999958e+02
1.360000000000000000e+02,3.237810400000000186e+02
1.370000000000000000e+02,3.259981999999999971e+02
1.380000000000000000e+02,3.281584500000000162e+02
1.390000000000000000e+02,3.302599200000000224e+02
1.400000000000000000e+02,3.323007799999999747e+02
1.410000000000000000e+02,3.342795699999999783e+02
1.420000000000000000e+02,3.361951300000000060e+02
1.430000000000000000e+02,3.380467800000000125e+02
1.440000000000000000e+02,3.398343800000000101e+02
1.450000000000000000e+02,3.415581999999999994e+02
1.460000000000000000e+02,3.432189300000000003e+02
1.470000000000000000e+02,3.448179299999999898e+02
1.480000000000000000e+02,3.463570900000000279e+02
1.490000000000000000e+02,3.478387099999999919e+02
1.500000000000000000e+02,3.492654999999999745e+02
1.510000000000000000e+02,3.506404699999999934e+02
1.520000000000000000e+02,3.519673500000000104e+02
1.530000000000000000e+02,3.532499099999999999e+02
1.540000000000000000e+02,3.544923400000000129e+02
1.550000000000000000e+02,3.556990099999999870e+02
1.560000000000000000e+02,3.568743600000000242e+02
1.570000000000000000e+02,3.580229800000000182e+02
1.580000000000000000e+02,3.591493800000000078e+02
1.590000000000000000e+02,3.602581799999999816e+02
1.600000000000000000e+02,3.613538500000000226e+02
1.610000000000000000e+02,3.625643900000000031e+02
1.620000000000000000e+02,3.637251899999999978e+02
1.630000000000000000e+02,3.648591599999999744e+02
1.640000000000000000e+02,3.659696999999999889e+02
1.650000000000000000e+02,3.670665599999999813e+02
1.660000000000000000e+02,3.681664099999999848e+02
1.670000000000000000e+02,3.692805500000000052e+02
1.680000000000000000e+02,3.704151600000000144e+02
1.690000000000000000e+02,3.715742799999999875e+02
1.700000000000000000e+02,3.727611999999999739e+02
1.710000000000000000e+02,3.739778400000000147e+02
1.720000000000000000e+02,3.752270500000000197e+02
1.730000000000000000e+02,3.765119000000000256e+02
1.740000000000000000e+02,3.778354499999999803e+02
1.750000000000000000e+02,3.792003500000000145e+02
1.760000000000000000e+02,3.806105299999999829e+02
1.770000000000000000e+02,3.820703399999999874e+02
1.780000000000000000e+02,3.835832800000000020e+02
1.790000000000000000e+02,3.851545100000000161e+02
1.800000000000000000e+02,3.867893700000000194e+02
1.810000000000000000e+02,3.884941699999999969e+02
1.820000000000000000e+02,3.902745400000000018e+02
1.830000000000000000e+02,3.921388499999999908e+02
1.840000000000000000e+02,3.940953099999999836e+02
1.850000000000000000e+02,3.961539300000000026e+02
1.860000000000000000e+02,3.983247700000000009e+02
1.870000000000000000e+02,4.006208199999999806e+02
1.880000000000000000e+02,4.030547199999999748e+02
1.890000000000000000e+02,4.056423599999999965e+02
1.900000000000000000e+02,4.084036300000000210e+02
1.910000000000000000e+02,4.113567499999999768e+02
1.920000000000000000e+02,4.145260000000000105e+02
1.930000000000000000e+02,4.179381099999999947e+02
1.940000000000000000e+02,4.216198400000000106e+02
1.950000000000000000e+02,4.255992699999999900e+02
1.960000000000000000e+02,4.299095800000000054e+02
1.970000000000000000e+02,4.345764800000000037e+02
1.980000000000000000e+02,4.396157799999999725e+02
1.990000000000000000e+02,4.450303299999999922e+02
2.000000000000000000e+02,4.507914099999999848e+02
2.010000000000000000e+02,4.568342299999999909e+02
2.020000000000000000e+02,4.630497399999999857e+02
2.030000000000000000e+02,4.692963300000000118e+02
2.040000000000000000e+02,4.754332899999999995e+02
2.050000000000000000e+02,4.813579100000000039e+02
2.060000000000000000e+02,4.870279499999999757e+02
2.070000000000000000e+02,4.924468699999999899e+02
2.080000000000000000e+02,4.976384300000000280e+02
2.090000000000000000e+02,5.026325400000000059e+02
2.100000000000000000e+02,5.074540400000000204e+02
2.110000000000000000e+02,5.121245099999999866e+02
2.120000000000000000e+02,5.166600300000000061e+02
2.130000000000000000e+02,5.210744600000000446e+02
2.140000000000000000e+02,5.253773800000000165e+02
2.150000000000000000e+02,5.295785499999999502e+02
2.160000000000000000e+02,5.336846299999999701e+02
2.170000000000000000e+02,5.377023900000000367e+02
2.180000000000000000e+02,5.416376299999999446e+02
2.190000000000000000e+02,5.454944500000000289e+02
2.200000000000000000e+02,5.492777099999999564e+02
2.210000000000000000e+02,5.529908400000000483e+02
2.220000000000000000e+02,5.566379399999999578e+02
2.230000000000000000e+02,5.602214400000000296e+02
2.240000000000000000e+02,5.637446300000000292e+02
2.250000000000000000e+02,5.672099600000000237e+02
2.260000000000000000e+02,5.706190199999999777e+02
2.270000000000000000e+02,5.739745500000000220e+02
2.280000000000000000e+02,5.772780199999999695e+02
2.290000000000000000e+02,5.805319200000000137e+02
2.300000000000000000e+02,5.837374899999999798e+02
2.310000000000000000e+02,5.868962999999999965e+02
2.320000000000000000e+02,5.900097700000000032e+02
2.330000000000000000e+02,5.930791600000000017e+02
2.340000000000000000e+02,5.961055900000000065e+02
2.350000000000000000e+02,5.990909400000000460e+02
2.360000000000000000e+02,6.020349700000000439e+02
2.370000000000000000e+02,6.049398800000000165e+02
2.380000000000000000e+02,6.078059100000000399e+02
2.390000000000000000e+02,6.106340300000000525e+02
2.400000000000000000e+02,6.134254200000000310e+02
2.410000000000000000e+02,6.161803599999999506e+02
2.420000000000000000e+02,6.189000200000000405e+02
2.430000000000000000e+02,6.215850799999999481e+02
2.440000000000000000e+02,6.242360200000000532e+02
2.450000000000000000e+02,6.268536400000000413e+02
2.460000000000000000e+02,6.294383500000000140e+02
2.470000000000000000e+02,6.319910899999999856e+02
2.480000000000000000e+02,6.345121500000000196e+02
2.490000000000000000e+02,6.370018900000000031e+02
2.500000000000000000e+02,6.394610000000000127e+02
2.510000000000000000e+02,6.418900099999999611e+02
2.520000000000000000e+02,6.442896700000000010e+02
2.530000000000000000e+02,6.466596100000000433e+02
2.540000000000000000e+02,6.490012799999999515e+02
2.550000000000000000e+02,6.513143900000000031e+02
2.560000000000000000e+02,6.535997300000000223e+02
2.570000000000000000e+02,6.558577299999999468e+02
2.580000000000000000e+02,6.580880100000000539e+02
2.590000000000000000e+02,6.602918700000000172e+02
2.600000000000000000e+02,6.624691199999999753e+02
2.610000000000000000e+02,6.646206700000000183e+02
2.620000000000000000e+02,6.667461499999999432e+02
2.630000000000000000e+02,6.688462500000000546e+02
2.640000000000000000e+02,6.709215699999999742e+02
2.650000000000000000e+02,6.729722299999999677e+02
2.660000000000000000e+02,6.749984699999999975e+02
2.670000000000000000e+02,6.770005499999999756e+02
2.680000000000000000e+02,6.789788200000000415e+02
2.690000000000000000e+02,6.809337799999999561e+02
2.700000000000000000e+02,6.828654800000000478e+02
2.710000000000000000e+02,6.847742299999999886e+02
2.720000000000000000e+02,6.866603400000000192e+02
2.730000000000000000e+02,6.885241099999999506e+02
2.740000000000000000e+02,6.903657200000000103e+02
2.750000000000000000e+02,6.921857300000000350e+02
2.760000000000000000e+02,6.939839500000000498e+02
2.770000000000000000e+02,6.957611699999999928e+02
2.780000000000000000e+02,6.975172099999999773e+02
2.790000000000000000e+02,6.992525600000000168e+02
2.800000000000000000e+02,7.009673500000000104e+02
2.810000000000000000e+02,7.026617999999999711e+02
2.820000000000000000e+02,7.043361800000000130e+02
2.830000000000000000e+02,7.059907200000000103e+02
2.840000000000000000e+02,7.076257900000000518e+02
2.850000000000000000e+02,7.092415200000000368e+02
2.860000000000000000e+02,7.108382599999999911e+02
2.870000000000000000e+02,7.124160799999999654e+02
2.880000000000000000e+02,7.139751599999999598e+02
2.890000000000000000e+02,7.155157500000000255e+02
2.900000000000000000e+02,7.170380900000000111e+02
2.910000000000000000e+02,7.185425400000000309e+02
2.920000000000000000e+02,7.200290499999999838e+02
2.930000000000000000e+02,7.214980500000000347e+02
2.940000000000000000e+02,7.229495799999999690e+02
2.950000000000000000e+02,7.243840300000000525e+02
2.960000000000000000e+02,7.258015699999999697e+02
2.970000000000000000e+02,7.272021499999999605e+02
2.980000000000000000e+02,7.285861200000000508e+02
2.990000000000000000e+02,7.299538000000000011e+02
3.000000000000000000e+02,7.313051100000000133e+02
3.010000000000000000e+02,7.326406200000000126e+02
3.020000000000000000e+02,7.339602099999999609e+02
3.030000000000000000e+02,7.352639799999999468e+02
3.040000000000000000e+02,7.365526099999999587e+02
3.050000000000000000e+02,7.378258100000000468e+02
3.060000000000000000e+02,7.390839200000000346e+02
3.070000000000000000e+02,7.403270899999999983e+02
3.080000000000000000e+02,7.415554799999999886e+02
3.090000000000000000e+02,7.427692899999999554e+02
3.100000000000000000e+02,7.439686900000000378e+02
3.110000000000000000e+02,7.451539299999999457e+02
3.120000000000000000e+02,7.463250699999999824e+02
3.130000000000000000e+02,7.474822400000000471e+02
3.140000000000000000e+02,7.486255499999999756e+02
3.150000000000000000e+02,7.497553699999999708e+02
3.160000000000000000e+02,7.508718900000000076e+02
3.170000000000000000e+02,7.519749799999999595e+02
3.180000000000000000e+02,7.530649399999999787e+02
3.190000000000000000e+02,7.541420299999999770e+02
3.200000000000000000e+02,7.552063000000000557e+02
3.210000000000000000e+02,7.562578700000000254e+02
3.220000000000000000e+02,7.572968799999999874e+02
3.230000000000000000e+02,7.583235499999999547e+02
3.240000000000000000e+02,7.593380100000000539e+02
3.250000000000000000e+02,7.603403899999999567e+02
3.260000000000000000e+02,7.613308700000000044e+02
3.270000000000000000e+02,7.623094499999999698e+02
3.280000000000000000e+02,7.632764899999999670e+02
3.290000000000000000e+02,7.642318699999999581e+02
3.300000000000000000e+02,7.651759600000000319e+02
3.310000000000000000e+02,7.661087599999999611e+02
3.320000000000000000e+02,7.670303300000000490e+02
3.330000000000000000e+02,7.679409799999999677e+02
3.340000000000000000e+02,7.688406999999999698e+02
3.350000000000000000e+02,7.697298600000000306e+02
3.360000000000000000e+02,7.706082800000000361e+02
3.370000000000000000e+02,7.714762600000000248e+02
3.380000000000000000e+02,7.723337999999999965e+02
3.390000000000000000e+02,7.731811500000000024e+02
3.400000000000000000e+02,7.740183100000000422e+02
3.410000000000000000e+02,7.748455800000000409e+02
3.420000000000000000e+02,7.756627799999999979e+02
3.430000000000000000e+02,7.764703399999999647e+02
3.440000000000000000e+02,7.772681300000000419e+02
3.450000000000000000e+02,7.780565199999999777e+02
3.460000000000000000e+02,7.788353899999999612e+02
3.470000000000000000e+02,7.796049199999999928e+02
3.480000000000000000e+02,7.803652299999999968e+02
3.490000000000000000e+02,7.811165799999999990e+02
3.500000000000000000e+02,7.818587599999999611e+02
3.510000000000000000e+02,7.825920999999999594e+02
3.520000000000000000e+02,7.833167099999999436e+02
3.530000000000000000e+02,7.840326499999999896e+02
3.540000000000000000e+02,7.847399900000000343e+02
3.550000000000000000e+02,7.854387799999999515e+02
3.560000000000000000e+02,7.861292099999999436e+02
3.570000000000000000e+02,7.868114600000000110e+02
3.580000000000000000e+02,7.874854100000000017e+02
3.590000000000000000e+02,7.881513700000000426e+02
3.600000000000000000e+02,7.888093300000000454e+02
3.610000000000000000e+02,7.894593499999999722e+02
3.620000000000000000e+02,7.901016200000000254e+02
3.630000000000000000e+02,7.907362100000000282e+02
3.640000000000000000e+02,7.913630399999999554e+02
3.650000000000000000e+02,7.919825399999999718e+02
3.660000000000000000e+02,7.925944799999999759e+02
3.670000000000000000e+02,7.931991000000000440e+02
3.680000000000000000e+02,7.937964500000000498e+02
3.690000000000000000e+02,7.943866600000000062e+02
3.700000000000000000e+02,7.949697899999999890e+02
3.710000000000000000e+02,7.955458399999999983e+02
3.720000000000000000e+02,7.961149299999999585e+02
3.730000000000000000e+02,7.966773100000000341e+02
3.740000000000000000e+02,7.972327900000000227e+02
3.750000000000000000e+02,7.977816800000000512e+02
3.760000000000000000e+02,7.983239700000000312e+02
3.770000000000000000e+02,7.988596800000000258e+02
3.780000000000000000e+02,7.993889799999999468e+02
3.790000000000000000e+02,7.999119299999999839e+02
3.800000000000000000e+02,8.004285899999999856e+02
3.810000000000000000e+02,8.009390300000000025e+02
3.820000000000000000e+02,8.014433000000000220e+02
3.830000000000000000e+02,8.019414699999999812e+02
3.840000000000000000e+02,8.024337199999999939e+02
3.850000000000000000e+02,8.029199800000000096e+02
3.860000000000000000e+02,8.034003900000000158e+02
3.870000000000000000e+02,8.038749400000000378e+02
3.880000000000000000e+02,8.043438099999999622e+02
3.890000000000000000e+02,8.048070699999999533e+02
3.900000000000000000e+02,8.052647699999999986e+02
3.910000000000000000e+02,8.057169800000000350e+02
3.920000000000000000e+02,8.061636999999999489e+02
3.930000000000000000e+02,8.066049799999999550e+02
3.940000000000000000e+02,8.070409499999999525e+02
3.950000000000000000e+02,8.074716200000000299e+02
3.960000000000000000e+02,8.078972199999999475e+02
3.970000000000000000e+02,8.083175700000000461e+02
3.980000000000000000e+02,8.087329099999999471e+02
3.990000000000000000e+02,8.091432499999999663e+02
4.000000000000000000e+02,8.095487100000000282e+02
4.010000000000000000e+02,8.099491600000000062e+02
4.020000000000000000e+02,8.103448499999999513e+02
4.030000000000000000e+02,8.107357200000000148e+02
4.040000000000000000e+02,8.111219499999999698e+02
4.050000000000000000e+02,8.115034200000000055e+02
4.060000000000000000e+02,8.118803699999999708e+02
4.070000000000000000e+02,8.122527499999999918e+02
4.080000000000000000e+02,8.126205400000000054e+02
4.090000000000000000e+02,8.129839500000000498e+02
4.100000000000000000e+02,8.133429599999999482e+02
4.110000000000000000e+02,8.136976300000000037e+02
4.120000000000000000e+02,8.140480300000000398e+02
4.130000000000000000e+02,8.143941700000000310e+02
4.140000000000000000e+02,8.147361499999999523e+02
4.150000000000000000e+02,8.150740399999999681e+02
4.160000000000000000e+02,8.154077800000000025e+02
4.170000000000000000e+02,8.157374899999999798e+02
4.180000000000000000e+02,8.160631700000000137e+02
4.190000000000000000e+02,8.163849500000000035e+02
4.200000000000000000e+02,8.167028800000000501e+02
4.210000000000000000e+02,8.170169100000000526e+02
4.220000000000000000e+02,8.173271499999999605e+02
4.230000000000000000e+02,8.176336700000000519e+02
4.240000000000000000e+02,8.179364600000000110e+02
4.250000000000000000e+02,8.182355999999999767e+02
4.260000000000000000e+02,8.185311299999999619e+02
4.270000000000000000e+02,8.188230600000000550e+02
4.280000000000000000e+02,8.191114499999999907e+02
4.290000000000000000e+02,8.193963599999999587e+02
4.300000000000000000e+02,8.196778600000000097e+02
4.310000000000000000e+02,8.199558700000000044e+02
4.320000000000000000e+02,8.202305900000000065e+02
4.330000000000000000e+02,8.205019499999999653e+02
4.340000000000000000e+02,8.207700200000000450e+02
4.350000000000000000e+02,8.210348500000000058e+02
4.360000000000000000e+02,8.212964500000000498e+02
4.370000000000000000e+02,8.215549300000000130e+02
4.380000000000000000e+02,8.218102400000000216e+02
4.390000000000000000e+02,8.220624400000000378e+02
4.400000000000000000e+02,8.223115800000000490e+02
4.410000000000000000e+02,8.225578000000000429e+02
4.420000000000000000e+02,8.228009600000000319e+02
4.430000000000000000e+02,8.230412000000000035e+02
4.440000000000000000e+02,8.232784400000000460e+02
4.450000000000000000e+02,8.235128799999999956e+02
4.460000000000000000e+02,8.237445099999999911e+02
4.470000000000000000e+02,8.239733300000000327e+02
4.480000000000000000e+02,8.241993400000000065e+02
4.490000000000000000e+02,8.244226099999999633e+02
4.500000000000000000e+02,8.246431900000000041e+02
4.510000000000000000e+02,8.248610800000000154e+02
4.520000000000000000e+02,8.250762899999999718e+02
4.530000000000000000e+02,8.252889400000000251e+02
4.540000000000000000e+02,8.254990199999999732e+02
4.550000000000000000e+02,8.257065400000000182e+02
4.560000000000000000e+02,8.259115000000000464e+02
4.570000000000000000e+02,8.261140699999999697e+02
4.580000000000000000e+02,8.263140899999999647e+02
4.590000000000000000e+02,8.265117199999999684e+02
4.600000000000000000e+02,8.267069699999999557e+02
4.610000000000000000e+02,8.268998400000000402e+02
4.620000000000000000e+02,8.270903299999999945e+02
4.630000000000000000e+02,8.272785599999999704e+02
4.640000000000000000e+02,8.274644799999999805e+02
4.650000000000000000e+02,8.276481899999999996e+02
4.660000000000000000e+02,8.278295900000000529e+02
4.670000000000000000e+02,8.280088500000000522e+02
4.680000000000000000e+02,8.281859100000000353e+02
4.690000000000000000e+02,8.283608400000000529e+02
4.700000000000000000e+02,8.285335700000000543e+02
4.710000000000000000e+02,8.287042800000000398e+02
4.720000000000000000e+02,8.288729200000000219e+02
4.730000000000000000e+02,8.290394900000000007e+02
4.740000000000000000e+02,8.292040399999999636e+02
4.750000000000000000e+02,8.293665799999999990e+02
4.760000000000000000e+02,8.295271599999999808e+02
4.770000000000000000e+02,8.296857899999999972e+02
4.780000000000000000e+02,8.298424700000000485e+02
4.790000000000000000e+02,8.299973099999999704e+02
4.800000000000000000e+02,8.301502100000000155e+02
4.810000000000000000e+02,8.303012700000000450e+02
4.820000000000000000e+02,8.304505000000000337e+02
4.830000000000000000e+02,8.305978999999999814e+02
4.840000000000000000e+02,8.307435299999999643e+02
4.850000000000000000e+02,8.308873899999999821e+02
4.860000000000000000e+02,8.310294800000000350e+02
4.870000000000000000e+02,8.311698599999999715e+02
4.880000000000000000e+02,8.313085300000000188e+02
4.890000000000000000e+02,8.314455000000000382e+02
4.900000000000000000e+02,8.315808100000000422e+02
4.910000000000000000e+02,8.317144799999999805e+02
4.920000000000000000e+02,8.318465599999999540e+02
4.930000000000000000e+02,8.319769900000000007e+02
4.940000000000000000e+02,8.321059000000000196e+02
4.950000000000000000e+02,8.322331500000000233e+02
4.960000000000000000e+02,8.323589500000000498e+02
4.970000000000000000e+02,8.324831500000000233e+02
4.980000000000000000e+02,8.326058299999999690e+02
4.990000000000000000e+02,8.327270499999999629e+02
5.000000000000000000e+02,8.328468000000000302e+02
5.010000000000000000e+02,8.329650900000000320e+02
5.020000000000000000e+02,8.330819699999999557e+02
5.030000000000000000e+02,8.331973900000000413e+02
5.040000000000000000e+02,8.333114000000000487e+02
5.050000000000000000e+02,8.334240700000000288e+02
5.060000000000000000e+02,8.335353400000000192e+02
5.070000000000000000e+02,8.336452600000000075e+02
5.080000000000000000e+02,8.337538500000000568e+02
5.090000000000000000e+02,8.338610800000000154e+02
5.100000000000000000e+02,8.339670399999999972e+02
5.110000000000000000e+02,8.340717200000000275e+02
5.120000000000000000e+02,8.341751100000000179e+02
5.130000000000000000e+02,8.342772800000000188e+02
5.140000000000000000e+02,8.343781699999999546e+02
5.150000000000000000e+02,8.344778400000000147e+02
5.160000000000000000e+02,8.345762899999999718e+02
5.170000000000000000e+02,8.346735200000000532e+02
5.180000000000000000e+02,8.347695899999999938e+02
5.190000000000000000e+02,8.348645000000000209e+02
5.200000000000000000e+02,8.349582500000000209e+02
5.210000000000000000e+02,8.350508999999999560e+02
5.220000000000000000e+02,8.351423999999999523e+02
5.230000000000000000e+02,8.352327299999999468e+02
5.240000000000000000e+02,8.353220199999999522e+02
5.250000000000000000e+02,8.354102199999999812e+02
5.260000000000000000e+02,8.354973099999999704e+02
5.270000000000000000e+02,8.355833699999999453e+02
5.280000000000000000e+02,8.356683299999999690e+02
5.290000000000000000e+02,8.357523200000000543e+02
5.300000000000000000e+02,8.358352700000000368e+02
5.310000000000000000e+02,8.359172399999999925e+02
5.320000000000000000e+02,8.359981699999999591e+02
5.330000000000000000e+02,8.360781200000000126e+02
5.340000000000000000e+02,8.361571000000000140e+02
5.350000000000000000e+02,8.362351099999999633e+02
5.360000000000000000e+02,8.363121899999999869e+02
5.370000000000000000e+02,8.363883700000000090e+02
5.380000000000000000e+02,8.364635600000000295e+02
5.390000000000000000e+02,8.365378399999999601e+02
5.400000000000000000e+02,8.366112100000000282e+02
5.410000000000000000e+02,8.366837199999999939e+02
5.420000000000000000e+02,8.367553100000000086e+02
5.430000000000000000e+02,8.368260500000000093e+02
5.440000000000000000e+02,8.368959399999999960e+02
5.450000000000000000e+02,8.369649699999999939e+02
5.460000000000000000e+02,8.370331999999999653e+02
5.470000000000000000e+02,8.371005199999999604e+02
5.480000000000000000e+02,8.371670500000000175e+02
5.490000000000000000e+02,8.372327900000000227e+02
5.500000000000000000e+02,8.372977300000000014e+02
5.510000000000000000e+02,8.373618800000000419e+02
5.520000000000000000e+02,8.374252300000000560e+02
5.530000000000000000e+02,8.374878499999999804e+02
5.540000000000000000e+02,8.375496200000000044e+02
5.550000000000000000e+02,8.376107200000000148e+02
5.560000000000000000e+02,8.376710199999999986e+02
5.570000000000000000e+02,8.377306499999999687e+02
5.580000000000000000e+02,8.377894900000000007e+02
5.590000000000000000e+02,8.378476600000000190e+02
5.600000000000000000e+02,8.379050899999999729e+02
5.610000000000000000e+02,8.379618500000000267e+02
5.620000000000000000e+02,8.380178799999999910e+02
5.630000000000000000e+02,8.380732400000000553e+02
5.640000000000000000e+02,8.381279299999999921e+02
5.650000000000000000e+02,8.381819500000000289e+02
5.660000000000000000e+02,8.382353500000000395e+02
5.670000000000000000e+02,8.382880900000000111e+02
5.680000000000000000e+02,8.383401499999999942e+02
5.690000000000000000e+02,8.383916000000000395e+02
5.700000000000000000e+02,8.384423799999999574e+02
5.710000000000000000e+02,8.384926100000000133e+02
5.720000000000000000e+02,8.385421800000000303e+02
5.730000000000000000e+02,8.385911899999999832e+02
5.740000000000000000e+02,8.386395899999999983e+02
5.750000000000000000e+02,8.386873799999999619e+02
5.760000000000000000e+02,8.387345599999999877e+02
5.770000000000000000e+02,8.387811900000000378e+02
5.780000000000000000e+02,8.388272699999999986e+02
5.790000000000000000e+02,8.388727999999999838e+02
5.800000000000000000e+02,8.389177200000000312e+02
5.810000000000000000e+02,8.389621600000000399e+02
5.820000000000000000e+02,8.390060399999999845e+02
5.830000000000000000e+02,8.390493800000000419e+02
5.840000000000000000e+02,8.390921600000000353e+02
5.850000000000000000e+02,8.391344599999999900e+02
5.860000000000000000e+02,8.391762099999999691e+02
5.870000000000000000e+02,8.392174700000000485e+02
5.880000000000000000e+02,8.392582400000000007e+02
5.890000000000000000e+02,8.392984599999999773e+02
5.900000000000000000e+02,8.393382599999999911e+02
5.910000000000000000e+02,8.393775600000000168e+02
5.920000000000000000e+02,8.394163800000000037e+02
5.930000000000000000e+02,8.394547099999999773e+02
5.940000000000000000e+02,8.394925500000000511e+02
5.950000000000000000e+02,8.395299700000000485e+02
5.960000000000000000e+02,8.395668899999999439e+02
5.970000000000000000e+02,8.396033899999999903e+02
5.980000000000000000e+02,8.396394699999999602e+02
5.990000000000000000e+02,8.396750500000000557e+02