# Time [s], Temperature [C]
1.000000000000000000e+00,2.500000000000000000e+01
2.000000000000000000e+00,2.500000000000000000e+01
3.000000000000000000e+00,2.500000000000000000e+01
4.000000000000000000e+00,2.500000000000000000e+01
5.000000000000000000e+00,2.500000800000000112e+01
6.000000000000000000e+00,2.500004600000000110e+01
7.000000000000000000e+00,2.500020200000000159e+01
8.000000000000000000e+00,2.500071499999999958e+01
9.000000000000000000e+00,2.500212499999999949e+01
1.000000000000000000e+01,2.500546100000000038e+01
1.100000000000000000e+01,2.501243600000000100e+01
1.200000000000000000e+01,2.502560400000000129e+01
1.300000000000000000e+01,2.504839700000000136e+01
1.400000000000000000e+01,2.508510199999999912e+01
1.500000000000000000e+01,2.514071500000000015e+01
1.600000000000000000e+01,2.522077000000000169e+01
1.700000000000000000e+01,2.533112099999999955e+01
1.800000000000000000e+01,2.547775299999999987e+01
1.900000000000000000e+01,2.566656499999999852e+01
2.000000000000000000e+01,2.590325199999999839e+01
2.100000000000000000e+01,2.619314599999999871e+01
2.200000000000000000e+01,2.654115499999999983e+01
2.300000000000000000e+01,2.695166000000000039e+01
2.400000000000000000e+01,2.742847599999999986e+01
2.500000000000000000e+01,2.797482899999999972e+01
2.600000000000000000e+01,2.859325600000000023e+01
2.700000000000000000e+01,2.928576699999999988e+01
2.800000000000000000e+01,3.005372799999999955e+01
2.900000000000000000e+01,3.089791299999999907e+01
3.000000000000000000e+01,3.181860500000000158e+01
3.100000000000000000e+01,3.281564699999999846e+01
3.200000000000000000e+01,3.388840100000000177e+01
3.300000000000000000e+01,3.503588500000000039e+01
3.400000000000000000e+01,3.625696200000000147e+01
3.500000000000000000e+01,3.755009799999999842e+01
3.600000000000000000e+01,3.891366599999999920e+01
3.700000000000000000e+01,4.034597800000000234e+01
3.800000000000000000e+01,4.184510000000000218e+01
3.900000000000000000e+01,4.340914200000000278e+01
4.000000000000000000e+01,4.503612900000000252e+01
4.100000000000000000e+01,4.672414400000000256e+01
4.200000000000000000e+01,4.847111100000000050e+01
4.300000000000000000e+01,5.027506999999999948e+01
4.400000000000000000e+01,5.213396800000000297e+01
4.500000000000000000e+01,5.404593700000000212e+01
4.600000000000000000e+01,5.600904500000000041e+01
4.700000000000000000e+01,5.802140800000000098e+01
4.800000000000000000e+01,6.008116900000000271e+01
4.900000000000000000e+01,6.218653499999999923e+01
5.000000000000000000e+01,6.433582300000000487e+01
5.100000000000000000e+01,6.652725999999999829e+01
5.200000000000000000e+01,6.875926200000000676e+01
5.300000000000000000e+01,7.103011300000000006e+01
5.400000000000000000e+01,7.333833300000000577e+01
5.500000000000000000e+01,7.568243400000000065e+01
5.600000000000000000e+01,7.806101200000000517e+01
5.700000000000000000e+01,8.047257199999999955e+01
5.800000000000000000e+01,8.291569499999999948e+01
5.900000000000000000e+01,8.538909099999999341e+01
6.000000000000000000e+01,8.789157899999999302e+01
6.100000000000000000e+01,9.043006099999999492e+01
6.200000000000000000e+01,9.299044000000000665e+01
6.300000000000000000e+01,9.557512699999999484e+01
6.400000000000000000e+01,9.818363999999999692e+01
6.500000000000000000e+01,1.008151699999999948e+02
6.600000000000000000e+01,1.034686999999999983e+02
6.700000000000000000e+01,1.061434500000000014e+02
6.800000000000000000e+01,1.088385899999999964e+02
6.900000000000000000e+01,1.115533099999999962e+02
7.000000000000000000e+01,1.142867600000000010e+02
7.100000000000000000e+01,1.170380300000000062e+02
7.200000000000000000e+01,1.198064200000000028e+02
7.300000000000000000e+01,1.225910599999999988e+02
7.400000000000000000e+01,1.253910800000000023e+02
7.500000000000000000e+01,1.282056900000000041e+02
7.600000000000000000e+01,1.310340300000000013e+02
7.700000000000000000e+01,1.338753100000000131e+02
7.800000000000000000e+01,1.367287599999999941e+02
7.900000000000000000e+01,1.395935100000000091e+02
8.000000000000000000e+01,1.424687700000000063e+02
8.100000000000000000e+01,1.453537399999999877e+02
8.200000000000000000e+01,1.482476699999999994e+02
8.300000000000000000e+01,1.511499000000000024e+02
8.400000000000000000e+01,1.540595399999999984e+02
8.500000000000000000e+01,1.569758799999999894e+02
8.600000000000000000e+01,1.598982100000000059e+02
8.700000000000000000e+01,1.628259400000000028e+02
8.800000000000000000e+01,1.657582700000000102e+02
8.900000000000000000e+01,1.686944699999999955e+02
9.000000000000000000e+01,1.716340299999999957e+02
9.100000000000000000e+01,1.745761599999999873e+02
9.200000000000000000e+01,1.775202199999999948e+02
9.300000000000000000e+01,1.804656200000000013e+02
9.400000000000000000e+01,1.834115299999999991e+02
9.500000000000000000e+01,1.863574800000000096e+02
9.600000000000000000e+01,1.893026700000000062e+02
9.700000000000000000e+01,1.922464799999999912e+02
9.800000000000000000e+01,1.951883500000000140e+02
9.900000000000000000e+01,1.981274999999999977e+02
1.000000000000000000e+02,2.010632799999999918e+02
1.010000000000000000e+02,2.039951599999999985e+02
1.020000000000000000e+02,2.069223200000000134e+02
1.030000000000000000e+02,2.098441300000000069e+02
1.040000000000000000e+02,2.127599500000000035e+02
1.050000000000000000e+02,2.156689299999999889e+02
1.060000000000000000e+02,2.185703900000000033e+02
1.070000000000000000e+02,2.214635499999999979e+02
1.080000000000000000e+02,2.243476699999999937e+02
1.090000000000000000e+02,2.272220000000000084e+02
1.100000000000000000e+02,2.300856300000000090e+02
1.110000000000000000e+02,2.329377700000000004e+02
1.120000000000000000e+02,2.357780500000000075e+02
1.130000000000000000e+02,2.386052099999999996e+02
1.140000000000000000e+02,2.414191399999999987e+02
1.150000000000000000e+02,2.442197899999999890e+02
1.160000000000000000e+02,2.470067600000000141e+02
1.170000000000000000e+02,2.497786900000000117e+02
1.180000000000000000e+02,2.525335800000000006e+02
1.190000000000000000e+02,2.552692900000000122e+02
1.200000000000000000e+02,2.579836700000000178e+02
1.210000000000000000e+02,2.606747700000000236e+02
1.220000000000000000e+02,2.633409399999999891e+02
1.230000000000000000e+02,2.659802599999999870e+02
1.240000000000000000e+02,2.685906400000000076e+02
1.250000000000000000e+02,2.711701699999999846e+02
1.260000000000000000e+02,2.737165200000000027e+02
1.270000000000000000e+02,2.762272899999999822e+02
1.280000000000000000e+02,2.786999799999999823e+02
1.290000000000000000e+02,2.811320499999999925e+02
1.300000000000000000e+02,2.835206000000000017e+02
1.310000000000000000e+02,2.858627900000000182e+02
1.320000000000000000e+02,2.881557300000000055e+02
1.330000000000000000e+02,2.903965499999999906e+02
1.340000000000000000e+02,2.925823100000000068e+02
1.350000000000000000e+02,2.947103299999999990e+02
1.360000000000000000e+02,2.967778299999999945e+02
1.370000000000000000e+02,2.987823799999999892e+02
1.380000000000000000e+02,3.007219799999999736e+02
1.390000000000000000e+02,3.025948799999999892e+02
1.400000000000000000e+02,3.043998399999999833e+02
1.410000000000000000e+02,3.061360500000000116e+02
1.420000000000000000e+02,3.078032499999999914e+02
1.430000000000000000e+02,3.094020699999999806e+02
1.440000000000000000e+02,3.109334699999999998e+02
1.450000000000000000e+02,3.123992299999999886e+02
1.460000000000000000e+02,3.138016700000000014e+02
1.470000000000000000e+02,3.151435500000000047e+02
1.480000000000000000e+02,3.164282799999999725e+02
1.490000000000000000e+02,3.176597600000000057e+02
1.500000000000000000e+02,3.188421599999999785e+02
1.510000000000000000e+02,3.199799800000000118e+02
1.520000000000000000e+02,3.211336699999999951e+02
1.530000000000000000e+02,3.222384000000000128e+02
1.540000000000000000e+02,3.233072199999999725e+02
1.550000000000000000e+02,3.243404499999999757e+02
1.560000000000000000e+02,3.253404499999999757e+02
1.570000000000000000e+02,3.263148499999999785e+02
1.580000000000000000e+02,3.272716699999999719e+02
1.590000000000000000e+02,3.282174699999999916e+02
1.600000000000000000e+02,3.291573500000000081e+02
1.610000000000000000e+02,3.300956100000000220e+02
1.620000000000000000e+02,3.310356800000000135e+02
1.630000000000000000e+02,3.319807700000000068e+02
1.640000000000000000e+02,3.329333500000000186e+02
1.650000000000000000e+02,3.338960299999999961e+02
1.660000000000000000e+02,3.348708199999999806e+02
1.670000000000000000e+02,3.358600200000000200e+02
1.680000000000000000e+02,3.368657499999999914e+02
1.690000000000000000e+02,3.378893400000000042e+02
1.700000000000000000e+02,3.389330699999999865e+02
1.710000000000000000e+02,3.399983799999999974e+02
1.720000000000000000e+02,3.410874000000000024e+02
1.730000000000000000e+02,3.422015999999999849e+02
1.740000000000000000e+02,3.433426200000000108e+02
1.750000000000000000e+02,3.445123899999999821e+02
1.760000000000000000e+02,3.457129499999999780e+02
1.770000000000000000e+02,3.469459800000000200e+02
1.780000000000000000e+02,3.482135000000000105e+02
1.790000000000000000e+02,3.495184600000000046e+02
1.800000000000000000e+02,3.508624599999999987e+02
1.810000000000000000e+02,3.522486000000000104e+02
1.820000000000000000e+02,3.536788300000000049e+02
1.830000000000000000e+02,3.551560999999999808e+02
1.840000000000000000e+02,3.566838099999999940e+02
1.850000000000000000e+02,3.582647999999999797e+02
1.860000000000000000e+02,3.599026200000000131e+02
1.870000000000000000e+02,3.616010400000000118e+02
1.880000000000000000e+02,3.633644400000000019e+02
1.890000000000000000e+02,3.657404799999999909e+02
1.900000000000000000e+02,3.677041300000000206e+02
1.910000000000000000e+02,3.696539900000000216e+02
1.920000000000000000e+02,3.716900899999999979e+02
1.930000000000000000e+02,3.738213200000000143e+02
1.940000000000000000e+02,3.760519699999999830e+02
1.950000000000000000e+02,3.783842500000000086e+02
1.960000000000000000e+02,3.808195499999999925e+02
1.970000000000000000e+02,3.833598900000000071e+02
1.980000000000000000e+02,3.860058900000000222e+02
1.990000000000000000e+02,3.887581799999999816e+02
2.000000000000000000e+02,3.916135300000000257e+02
2.010000000000000000e+02,3.945687599999999975e+02
2.020000000000000000e+02,3.976163000000000238e+02
2.030000000000000000e+02,4.007460899999999810e+02
2.040000000000000000e+02,4.039458000000000197e+02
2.050000000000000000e+02,4.071985500000000116e+02
2.060000000000000000e+02,4.104871499999999855e+02
2.070000000000000000e+02,4.137919899999999984e+02
2.080000000000000000e+02,4.170935999999999808e+02
2.090000000000000000e+02,4.203759200000000078e+02
2.100000000000000000e+02,4.236235399999999913e+02
2.110000000000000000e+02,4.268251999999999953e+02
2.120000000000000000e+02,4.299721999999999866e+02
2.130000000000000000e+02,4.330606399999999780e+02
2.140000000000000000e+02,4.360880099999999970e+02
2.150000000000000000e+02,4.390553300000000263e+02
2.160000000000000000e+02,4.419636499999999728e+02
2.170000000000000000e+02,4.448154599999999732e+02
2.180000000000000000e+02,4.476145900000000211e+02
2.190000000000000000e+02,4.503641099999999824e+02
2.200000000000000000e+02,4.530671100000000138e+02
2.210000000000000000e+02,4.557276899999999955e+02
2.220000000000000000e+02,4.583485699999999952e+02
2.230000000000000000e+02,4.609326800000000048e+02
2.240000000000000000e+02,4.634823600000000283e+02
2.250000000000000000e+02,4.660000600000000190e+02
2.260000000000000000e+02,4.684868500000000040e+02
2.270000000000000000e+02,4.709445200000000114e+02
2.280000000000000000e+02,4.733743600000000242e+02
2.290000000000000000e+02,4.757777399999999943e+02
2.300000000000000000e+02,4.781555799999999863e+02
2.310000000000000000e+02,4.805089100000000144e+02
2.320000000000000000e+02,4.828389300000000048e+02
2.330000000000000000e+02,4.851460599999999772e+02
2.340000000000000000e+02,4.874313700000000154e+02
2.350000000000000000e+02,4.896955300000000193e+02
2.360000000000000000e+02,4.919388400000000274e+02
2.370000000000000000e+02,4.941625999999999976e+02
2.380000000000000000e+02,4.963667899999999804e+02
2.390000000000000000e+02,4.985523099999999772e+02
2.400000000000000000e+02,5.007193899999999758e+02
2.410000000000000000e+02,5.028690799999999967e+02
2.420000000000000000e+02,5.050011299999999892e+02
2.430000000000000000e+02,5.071162699999999859e+02
2.440000000000000000e+02,5.092149699999999939e+02
2.450000000000000000e+02,5.112975500000000011e+02
2.460000000000000000e+02,5.133644399999999450e+02
2.470000000000000000e+02,5.154157699999999522e+02
2.480000000000000000e+02,5.174519000000000233e+02
2.490000000000000000e+02,5.194731399999999439e+02
2.500000000000000000e+02,5.214799799999999550e+02
2.510000000000000000e+02,5.234725300000000061e+02
2.520000000000000000e+02,5.254510500000000093e+02
2.530000000000000000e+02,5.274159499999999525e+02
2.540000000000000000e+02,5.293674899999999752e+02
2.550000000000000000e+02,5.313058499999999640e+02
2.560000000000000000e+02,5.332311399999999821e+02
2.570000000000000000e+02,5.351432499999999663e+02
2.580000000000000000e+02,5.370430900000000065e+02
2.590000000000000000e+02,5.389304200000000264e+02
2.600000000000000000e+02,5.408051799999999503e+02
2.610000000000000000e+02,5.426682100000000446e+02
2.620000000000000000e+02,5.445193500000000313e+02
2.630000000000000000e+02,5.463584600000000364e+02
2.640000000000000000e+02,5.481862800000000107e+02
2.650000000000000000e+02,5.500023200000000543e+02
2.660000000000000000e+02,5.518072499999999536e+02
2.670000000000000000e+02,5.536008900000000494e+02
2.680000000000000000e+02,5.553835400000000391e+02
2.690000000000000000e+02,5.571549700000000485e+02
2.700000000000000000e+02,5.589159499999999525e+02
2.710000000000000000e+02,5.606660799999999654e+02
2.720000000000000000e+02,5.624054599999999482e+02
2.730000000000000000e+02,5.641345199999999522e+02
2.740000000000000000e+02,5.658531500000000278e+02
2.750000000000000000e+02,5.675616499999999860e+02
2.760000000000000000e+02,5.692600099999999657e+02
2.770000000000000000e+02,5.709480600000000550e+02
2.780000000000000000e+02,5.726260399999999890e+02
2.790000000000000000e+02,5.742941899999999578e+02
2.800000000000000000e+02,5.759524499999999989e+02
2.810000000000000000e+02,5.776008900000000494e+02
2.820000000000000000e+02,5.792398100000000341e+02
2.830000000000000000e+02,5.808690800000000536e+02
2.840000000000000000e+02,5.824887700000000450e+02
2.850000000000000000e+02,5.840990600000000086e+02
2.860000000000000000e+02,5.856999499999999443e+02
2.870000000000000000e+02,5.872915000000000418e+02
2.880000000000000000e+02,5.888737200000000485e+02
2.890000000000000000e+02,5.904466599999999517e+02
2.900000000000000000e+02,5.920103100000000040e+02
2.910000000000000000e+02,5.935651199999999790e+02
2.920000000000000000e+02,5.951110200000000532e+02
2.930000000000000000e+02,5.966479500000000371e+02
2.940000000000000000e+02,5.981759600000000319e+02
2.950000000000000000e+02,5.996951299999999492e+02
2.960000000000000000e+02,6.012054399999999532e+02
2.970000000000000000e+02,6.027072100000000319e+02
2.980000000000000000e+02,6.042002599999999575e+02
2.990000000000000000e+02,6.056846299999999701e+02
3.000000000000000000e+02,6.071603999999999814e+02
3.010000000000000000e+02,6.086278099999999540e+02
3.020000000000000000e+02,6.100867299999999886e+02
3.030000000000000000e+02,6.115370500000000220e+02
3.040000000000000000e+02,6.129791300000000547e+02
3.050000000000000000e+02,6.144129000000000360e+02
3.060000000000000000e+02,6.158385600000000295e+02
3.070000000000000000e+02,6.172559199999999464e+02
3.080000000000000000e+02,6.186649200000000519e+02
3.090000000000000000e+02,6.200659200000000055e+02
3.100000000000000000e+02,6.214587400000000343e+02
3.110000000000000000e+02,6.228434399999999869e+02
3.120000000000000000e+02,6.242203399999999647e+02
3.130000000000000000e+02,6.255891699999999673e+02
3.140000000000000000e+02,6.269501299999999446e+02
3.150000000000000000e+02,6.283032200000000103e+02
3.160000000000000000e+02,6.296485599999999749e+02
3.170000000000000000e+02,6.309860200000000532e+02
3.180000000000000000e+02,6.323156099999999924e+02
3.190000000000000000e+02,6.336375100000000202e+02
3.200000000000000000e+02,6.349519000000000233e+02
3.210000000000000000e+02,6.362586099999999760e+02
3.220000000000000000e+02,6.375577399999999670e+02
3.230000000000000000e+02,6.388492999999999711e+02
3.240000000000000000e+02,6.401332400000000007e+02
3.250000000000000000e+02,6.414097299999999677e+02
3.260000000000000000e+02,6.426788299999999481e+02
3.270000000000000000e+02,6.439406099999999924e+02
3.280000000000000000e+02,6.451950100000000248e+02
3.290000000000000000e+02,6.464421999999999571e+02
3.300000000000000000e+02,6.476819500000000289e+02
3.310000000000000000e+02,6.489144300000000385e+02
3.320000000000000000e+02,6.501397100000000364e+02
3.330000000000000000e+02,6.513577299999999468e+02
3.340000000000000000e+02,6.525686600000000226e+02
3.350000000000000000e+02,6.537724600000000237e+02
3.360000000000000000e+02,6.549691800000000512e+02
3.370000000000000000e+02,6.561588699999999790e+02
3.380000000000000000e+02,6.573416099999999460e+02
3.390000000000000000e+02,6.585174600000000282e+02
3.400000000000000000e+02,6.596862800000000107e+02
3.410000000000000000e+02,6.608482099999999946e+02
3.420000000000000000e+02,6.620032300000000305e+02
3.430000000000000000e+02,6.631515500000000429e+02
3.440000000000000000e+02,6.642930900000000065e+02
3.450000000000000000e+02,6.654279199999999719e+02
3.460000000000000000e+02,6.665559700000000021e+02
3.470000000000000000e+02,6.676773100000000341e+02
3.480000000000000000e+02,6.687919900000000553e+02
3.490000000000000000e+02,6.699001500000000533e+02
3.500000000000000000e+02,6.710017100000000028e+02
3.510000000000000000e+02,6.720966799999999921e+02
3.520000000000000000e+02,6.731851199999999835e+02
3.530000000000000000e+02,6.742671500000000151e+02
3.540000000000000000e+02,6.753427699999999732e+02
3.550000000000000000e+02,6.764118700000000217e+02
3.560000000000000000e+02,6.774746699999999464e+02
3.570000000000000000e+02,6.785311299999999619e+02
3.580000000000000000e+02,6.795811800000000176e+02
3.590000000000000000e+02,6.806250599999999622e+02
3.600000000000000000e+02,6.816626599999999598e+02
3.610000000000000000e+02,6.826939099999999598e+02
3.620000000000000000e+02,6.837191199999999753e+02
3.630000000000000000e+02,6.847381000000000313e+02
3.640000000000000000e+02,6.857510399999999890e+02
3.650000000000000000e+02,6.867578099999999495e+02
3.660000000000000000e+02,6.877586099999999760e+02
3.670000000000000000e+02,6.887533600000000433e+02
3.680000000000000000e+02,6.897421900000000505e+02
3.690000000000000000e+02,6.907249799999999595e+02
3.700000000000000000e+02,6.917019000000000233e+02
3.710000000000000000e+02,6.926728500000000395e+02
3.720000000000000000e+02,6.936380000000000337e+02
3.730000000000000000e+02,6.945972299999999677e+02
3.740000000000000000e+02,6.955507199999999557e+02
3.750000000000000000e+02,6.964984699999999975e+02
3.760000000000000000e+02,6.974404299999999921e+02
3.770000000000000000e+02,6.983765899999999647e+02
3.780000000000000000e+02,6.993071899999999914e+02
3.790000000000000000e+02,7.002320600000000468e+02
3.800000000000000000e+02,7.011513099999999667e+02
3.810000000000000000e+02,7.020650000000000546e+02
3.820000000000000000e+02,7.029731399999999439e+02
3.830000000000000000e+02,7.038757299999999759e+02
3.840000000000000000e+02,7.047727700000000368e+02
3.850000000000000000e+02,7.056644300000000385e+02
3.860000000000000000e+02,7.065506000000000313e+02
3.870000000000000000e+02,7.074313399999999774e+02
3.880000000000000000e+02,7.083066999999999780e+02
3.890000000000000000e+02,7.091766999999999825e+02
3.900000000000000000e+02,7.100413800000000037e+02
3.910000000000000000e+02,7.109007000000000289e+02
3.920000000000000000e+02,7.117548199999999952e+02
3.930000000000000000e+02,7.126037000000000035e+02
3.940000000000000000e+02,7.134473299999999654e+02
3.950000000000000000e+02,7.142858300000000327e+02
3.960000000000000000e+02,7.151191400000000158e+02
3.970000000000000000e+02,7.159472700000000032e+02
3.980000000000000000e+02,7.167703900000000203e+02
3.990000000000000000e+02,7.175883199999999533e+02
4.000000000000000000e+02,7.184013700000000426e+02
4.010000000000000000e+02,7.192092300000000478e+02
4.020000000000000000e+02,7.200122099999999818e+02
4.030000000000000000e+02,7.208101799999999457e+02
4.040000000000000000e+02,7.216032099999999900e+02
4.050000000000000000e+02,7.223913000000000011e+02
4.060000000000000000e+02,7.231744400000000041e+02
4.070000000000000000e+02,7.239527600000000120e+02
4.080000000000000000e+02,7.247263199999999870e+02
4.090000000000000000e+02,7.254950599999999667e+02
4.100000000000000000e+02,7.262590900000000147e+02
4.110000000000000000e+02,7.270183100000000422e+02
4.120000000000000000e+02,7.277728899999999612e+02
4.130000000000000000e+02,7.285227099999999609e+02
4.140000000000000000e+02,7.292678799999999910e+02
4.150000000000000000e+02,7.300083600000000388e+02
4.160000000000000000e+02,7.307441999999999780e+02
4.170000000000000000e+02,7.314755199999999604e+02
4.180000000000000000e+02,7.322023299999999608e+02
4.190000000000000000e+02,7.329245600000000422e+02
4.200000000000000000e+02,7.336422700000000532e+02
4.210000000000000000e+02,7.343554100000000062e+02
4.220000000000000000e+02,7.350642100000000028e+02
4.230000000000000000e+02,7.357684900000000425e+02
4.240000000000000000e+02,7.364684399999999869e+02
4.250000000000000000e+02,7.371638799999999492e+02
4.260000000000000000e+02,7.378550400000000309e+02
4.270000000000000000e+02,7.385419299999999794e+02
4.280000000000000000e+02,7.392244299999999839e+02
4.290000000000000000e+02,7.399025900000000320e+02
4.300000000000000000e+02,7.405765999999999849e+02
4.310000000000000000e+02,7.412463400000000320e+02
4.320000000000000000e+02,7.419117999999999711e+02
4.330000000000000000e+02,7.425731200000000172e+02
4.340000000000000000e+02,7.432303500000000440e+02
4.350000000000000000e+02,7.438832999999999629e+02
4.360000000000000000e+02,7.445321699999999510e+02
4.370000000000000000e+02,7.451770000000000209e+02
4.380000000000000000e+02,7.458177500000000464e+02
4.390000000000000000e+02,7.464544100000000526e+02
4.400000000000000000e+02,7.470870400000000018e+02
4.410000000000000000e+02,7.477157600000000457e+02
4.420000000000000000e+02,7.483403899999999567e+02
4.430000000000000000e+02,7.489611200000000508e+02
4.440000000000000000e+02,7.495779400000000123e+02
4.450000000000000000e+02,7.501907999999999674e+02
4.460000000000000000e+02,7.507998000000000047e+02
4.470000000000000000e+02,7.514049099999999726e+02
4.480000000000000000e+02,7.520062299999999595e+02
4.490000000000000000e+02,7.526036400000000413e+02
4.500000000000000000e+02,7.531973299999999654e+02
4.510000000000000000e+02,7.537871699999999464e+02
4.520000000000000000e+02,7.543733499999999594e+02
4.530000000000000000e+02,7.549558100000000422e+02
4.540000000000000000e+02,7.555344800000000305e+02
4.550000000000000000e+02,7.561095599999999877e+02
4.560000000000000000e+02,7.566808499999999640e+02
4.570000000000000000e+02,7.572486599999999726e+02
4.580000000000000000e+02,7.578126800000000003e+02
4.590000000000000000e+02,7.583732300000000350e+02
4.600000000000000000e+02,7.589301100000000133e+02
4.610000000000000000e+02,7.594834600000000364e+02
4.620000000000000000e+02,7.600333299999999781e+02
4.630000000000000000e+02,7.605795900000000529e+02
4.640000000000000000e+02,7.611223800000000210e+02
4.650000000000000000e+02,7.616617999999999711e+02
4.660000000000000000e+02,7.621976300000000037e+02
4.670000000000000000e+02,7.627300400000000309e+02
4.680000000000000000e+02,7.632591599999999517e+02
4.690000000000000000e+02,7.637847299999999677e+02
4.700000000000000000e+02,7.643070099999999911e+02
4.710000000000000000e+02,7.648259299999999712e+02
4.720000000000000000e+02,7.653415499999999838e+02
4.730000000000000000e+02,7.658537599999999657e+02
4.740000000000000000e+02,7.663627900000000182e+02
4.750000000000000000e+02,7.668684700000000021e+02
4.760000000000000000e+02,7.673709700000000566e+02
4.770000000000000000e+02,7.678701800000000048e+02
4.780000000000000000e+02,7.683662100000000237e+02
4.790000000000000000e+02,7.688590100000000120e+02
4.800000000000000000e+02,7.693486900000000333e+02
4.810000000000000000e+02,7.698351400000000240e+02
4.820000000000000000e+02,7.703184800000000223e+02
4.830000000000000000e+02,7.707987699999999904e+02
4.840000000000000000e+02,7.712758800000000292e+02
4.850000000000000000e+02,7.717499400000000378e+02
4.860000000000000000e+02,7.722208900000000540e+02
4.870000000000000000e+02,7.726888400000000274e+02
4.880000000000000000e+02,7.731538100000000213e+02
4.890000000000000000e+02,7.736156600000000481e+02
4.900000000000000000e+02,7.740745799999999690e+02
4.910000000000000000e+02,7.745305799999999863e+02
4.920000000000000000e+02,7.749835799999999608e+02
4.930000000000000000e+02,7.754335899999999810e+02
4.940000000000000000e+02,7.758808000000000220e+02
4.950000000000000000e+02,7.763250699999999824e+02
4.960000000000000000e+02,7.767664200000000392e+02
4.970000000000000000e+02,7.772048999999999523e+02
4.980000000000000000e+02,7.776404999999999745e+02
4.990000000000000000e+02,7.780733599999999797e+02
5.000000000000000000e+02,7.785034200000000055e+02
5.010000000000000000e+02,7.789306000000000267e+02
5.020000000000000000e+02,7.793550999999999931e+02
5.030000000000000000e+02,7.797767900000000054e+02
5.040000000000000000e+02,7.801957400000000007e+02
5.050000000000000000e+02,7.806119999999999663e+02
5.060000000000000000e+02,7.810255100000000539e+02
5.070000000000000000e+02,7.814363399999999729e+02
5.080000000000000000e+02,7.818444200000000137e+02
5.090000000000000000e+02,7.822498799999999619e+02
5.100000000000000000e+02,7.826527099999999564e+02
5.110000000000000000e+02,7.830529199999999719e+02
5.120000000000000000e+02,7.834505000000000337e+02
5.130000000000000000e+02,7.838455199999999650e+02
5.140000000000000000e+02,7.842379200000000310e+02
5.150000000000000000e+02,7.846278099999999540e+02
5.160000000000000000e+02,7.850151399999999740e+02
5.170000000000000000e+02,7.853999599999999646e+02
5.180000000000000000e+02,7.857822300000000268e+02
5.190000000000000000e+02,7.861620500000000220e+02
5.200000000000000000e+02,7.865393100000000004e+02
5.210000000000000000e+02,7.869141200000000254e+02
5.220000000000000000e+02,7.872865000000000464e+02
5.230000000000000000e+02,7.876564300000000003e+02
5.240000000000000000e+02,7.880239299999999503e+02
5.250000000000000000e+02,7.883890400000000227e+02
5.260000000000000000e+02,7.887517100000000028e+02
5.270000000000000000e+02,7.891120600000000422e+02
5.280000000000000000e+02,7.894700299999999515e+02
5.290000000000000000e+02,7.898256800000000339e+02
5.300000000000000000e+02,7.901789599999999609e+02
5.310000000000000000e+02,7.905299099999999726e+02
5.320000000000000000e+02,7.908785400000000436e+02
5.330000000000000000e+02,7.912249100000000226e+02
5.340000000000000000e+02,7.915690299999999979e+02
5.350000000000000000e+02,7.919108899999999949e+02
5.360000000000000000e+02,7.922504900000000134e+02
5.370000000000000000e+02,7.925878300000000536e+02
5.380000000000000000e+02,7.929229699999999639e+02
5.390000000000000000e+02,7.932558599999999842e+02
5.400000000000000000e+02,7.935866700000000264e+02
5.410000000000000000e+02,7.939152199999999766e+02
5.420000000000000000e+02,7.942416399999999612e+02
5.430000000000000000e+02,7.945658600000000433e+02
5.440000000000000000e+02,7.948879399999999578e+02
5.450000000000000000e+02,7.952079499999999825e+02
5.460000000000000000e+02,7.955258800000000292e+02
5.470000000000000000e+02,7.958416099999999460e+02
5.480000000000000000e+02,7.961553300000000490e+02
5.490000000000000000e+02,7.964669199999999591e+02
5.500000000000000000e+02,7.967765500000000429e+02
5.510000000000000000e+02,7.970840500000000475e+02
5.520000000000000000e+02,7.973895899999999983e+02
5.530000000000000000e+02,7.976930499999999711e+02
5.540000000000000000e+02,7.979945699999999533e+02
5.550000000000000000e+02,7.982940700000000334e+02
5.560000000000000000e+02,7.985915499999999838e+02
5.570000000000000000e+02,7.988870799999999690e+02
5.580000000000000000e+02,7.991806599999999889e+02
5.590000000000000000e+02,7.994722900000000436e+02
5.600000000000000000e+02,7.997620200000000068e+02
5.610000000000000000e+02,8.000498000000000047e+02
5.620000000000000000e+02,8.003357499999999618e+02
5.630000000000000000e+02,8.006196899999999914e+02
5.640000000000000000e+02,8.009017900000000054e+02
5.650000000000000000e+02,8.011820699999999533e+02
5.660000000000000000e+02,8.014604500000000371e+02
5.670000000000000000e+02,8.017369999999999663e+02
5.680000000000000000e+02,8.020117199999999684e+02
5.690000000000000000e+02,8.022846700000000055e+02
5.700000000000000000e+02,8.025557300000000396e+02
5.710000000000000000e+02,8.028250100000000202e+02
5.720000000000000000e+02,8.030925300000000107e+02
5.730000000000000000e+02,8.033582199999999602e+02
5.740000000000000000e+02,8.036221299999999701e+02
5.750000000000000000e+02,8.038843399999999519e+02
5.760000000000000000e+02,8.041447799999999688e+02
5.770000000000000000e+02,8.044035599999999704e+02
5.780000000000000000e+02,8.046605799999999817e+02
5.790000000000000000e+02,8.049158300000000281e+02
5.800000000000000000e+02,8.051694899999999961e+02
5.810000000000000000e+02,8.054213899999999740e+02
5.820000000000000000e+02,8.056716300000000501e+02
5.830000000000000000e+02,8.059202299999999468e+02
5.840000000000000000e+02,8.061671800000000303e+02
5.850000000000000000e+02,8.064124100000000226e+02
5.860000000000000000e+02,8.066560699999999997e+02
5.870000000000000000e+02,8.068981300000000374e+02
5.880000000000000000e+02,8.071385500000000093e+02
5.890000000000000000e+02,8.073773200000000543e+02
5.900000000000000000e+02,8.076145599999999831e+02
5.910000000000000000e+02,8.078502200000000357e+02
5.920000000000000000e+02,8.080842900000000100e+02
5.930000000000000000e+02,8.083167700000000195e+02
5.940000000000000000e+02,8.085477300000000014e+02
5.950000000000000000e+02,8.087771599999999808e+02
5.960000000000000000e+02,8.090050700000000461e+02
5.970000000000000000e+02,8.092314499999999953e+02
5.980000000000000000e+02,8.094562399999999798e+02
5.990000000000000000e+02,8.096796299999999746e+02