# Time [s], Temperature [C]
1.000000000000000000e+00,2.500000000000000000e+01
2.000000000000000000e+00,2.500000000000000000e+01
3.000000000000000000e+00,2.500000000000000000e+01
4.000000000000000000e+00,2.500000000000000000e+01
5.000000000000000000e+00,2.500000599999999906e+01
6.000000000000000000e+00,2.500003200000000092e+01
7.000000000000000000e+00,2.500013500000000022e+01
8.000000000000000000e+00,2.500046700000000044e+01
9.000000000000000000e+00,2.500137499999999946e+01
1.000000000000000000e+01,2.500353099999999884e+01
1.100000000000000000e+01,2.500807000000000002e+01
1.200000000000000000e+01,2.501670100000000119e+01
1.300000000000000000e+01,2.503175500000000042e+01
1.400000000000000000e+01,2.505617000000000161e+01
1.500000000000000000e+01,2.509339299999999895e+01
1.600000000000000000e+01,2.514727999999999852e+01
1.700000000000000000e+01,2.522192799999999835e+01
1.800000000000000000e+01,2.532154999999999845e+01
1.900000000000000000e+01,2.545033499999999904e+01
2.000000000000000000e+01,2.561233500000000163e+01
2.100000000000000000e+01,2.581138999999999939e+01
2.200000000000000000e+01,2.605105599999999910e+01
2.300000000000000000e+01,2.633455999999999975e+01
2.400000000000000000e+01,2.666475900000000010e+01
2.500000000000000000e+01,2.704413600000000173e+01
2.600000000000000000e+01,2.747484999999999999e+01
2.700000000000000000e+01,2.795862999999999943e+01
2.800000000000000000e+01,2.849688499999999891e+01
2.900000000000000000e+01,2.909071399999999841e+01
3.000000000000000000e+01,2.974086000000000141e+01
3.100000000000000000e+01,3.044783599999999879e+01
3.200000000000000000e+01,3.121185699999999841e+01
3.300000000000000000e+01,3.203290599999999699e+01
3.400000000000000000e+01,3.291078600000000165e+01
3.500000000000000000e+01,3.384508900000000153e+01
3.600000000000000000e+01,3.483525099999999952e+01
3.700000000000000000e+01,3.593970499999999646e+01
3.800000000000000000e+01,3.706484199999999873e+01
3.900000000000000000e+01,3.823510000000000275e+01
4.000000000000000000e+01,3.945493299999999692e+01
4.100000000000000000e+01,4.072382700000000000e+01
4.200000000000000000e+01,4.204106900000000024e+01
4.300000000000000000e+01,4.340557900000000302e+01
4.400000000000000000e+01,4.481615399999999738e+01
4.500000000000000000e+01,4.627147699999999730e+01
4.600000000000000000e+01,4.777009199999999822e+01
4.700000000000000000e+01,4.931063100000000077e+01
4.800000000000000000e+01,5.089159800000000189e+01
4.900000000000000000e+01,5.251146299999999911e+01
5.000000000000000000e+01,5.416870899999999978e+01
5.100000000000000000e+01,5.586185799999999801e+01
5.200000000000000000e+01,5.758923000000000059e+01
5.300000000000000000e+01,5.934927400000000119e+01
5.400000000000000000e+01,6.114052600000000126e+01
5.500000000000000000e+01,6.296129200000000026e+01
5.600000000000000000e+01,6.481012699999999427e+01
5.700000000000000000e+01,6.668551600000000690e+01
5.800000000000000000e+01,6.858589899999999773e+01
5.900000000000000000e+01,7.050994099999999776e+01
6.000000000000000000e+01,7.245617699999999672e+01
6.100000000000000000e+01,7.442324800000000096e+01
6.200000000000000000e+01,7.640985899999999731e+01
6.300000000000000000e+01,7.841476400000000524e+01
6.400000000000000000e+01,8.043679000000000201e+01
6.500000000000000000e+01,8.247477000000000658e+01
6.600000000000000000e+01,8.452759600000000262e+01
6.700000000000000000e+01,8.659425400000000650e+01
6.800000000000000000e+01,8.867384300000000508e+01
6.900000000000000000e+01,9.076526599999999689e+01
7.000000000000000000e+01,9.286766099999999824e+01
7.100000000000000000e+01,9.498027000000000442e+01
7.200000000000000000e+01,9.710231799999999680e+01
7.300000000000000000e+01,9.923289499999999919e+01
7.400000000000000000e+01,1.013713599999999957e+02
7.500000000000000000e+01,1.035170899999999961e+02
7.600000000000000000e+01,1.056693000000000069e+02
7.700000000000000000e+01,1.078274200000000036e+02
7.800000000000000000e+01,1.099908599999999979e+02
7.900000000000000000e+01,1.121590099999999950e+02
8.000000000000000000e+01,1.143314199999999943e+02
8.100000000000000000e+01,1.165074299999999994e+02
8.200000000000000000e+01,1.186866500000000002e+02
8.300000000000000000e+01,1.208684800000000052e+02
8.400000000000000000e+01,1.230525200000000012e+02
8.500000000000000000e+01,1.252383999999999986e+02
8.600000000000000000e+01,1.274256199999999950e+02
8.700000000000000000e+01,1.296138200000000040e+02
8.800000000000000000e+01,1.318025800000000061e+02
8.900000000000000000e+01,1.339916100000000085e+02
9.000000000000000000e+01,1.361804999999999950e+02
9.100000000000000000e+01,1.383689899999999966e+02
9.200000000000000000e+01,1.405566699999999969e+02
9.300000000000000000e+01,1.427433299999999861e+02
9.400000000000000000e+01,1.449285399999999981e+02
9.500000000000000000e+01,1.471121200000000044e+02
9.600000000000000000e+01,1.492937300000000107e+02
9.700000000000000000e+01,1.514731400000000008e+02
9.800000000000000000e+01,1.536501199999999869e+02
9.900000000000000000e+01,1.558243699999999876e+02
1.000000000000000000e+02,1.579956999999999994e+02
1.010000000000000000e+02,1.601638299999999902e+02
1.020000000000000000e+02,1.623286300000000040e+02
1.030000000000000000e+02,1.644897200000000055e+02
1.040000000000000000e+02,1.666469899999999882e+02
1.050000000000000000e+02,1.688002600000000086e+02
1.060000000000000000e+02,1.709492799999999875e+02
1.070000000000000000e+02,1.730939500000000066e+02
1.080000000000000000e+02,1.752339800000000025e+02
1.090000000000000000e+02,1.773692200000000128e+02
1.100000000000000000e+02,1.794996299999999962e+02
1.110000000000000000e+02,1.816248799999999903e+02
1.120000000000000000e+02,1.837448100000000011e+02
1.130000000000000000e+02,1.858593600000000094e+02
1.140000000000000000e+02,1.879683799999999962e+02
1.150000000000000000e+02,1.900716199999999958e+02
1.160000000000000000e+02,1.921689499999999953e+02
1.170000000000000000e+02,1.942602400000000102e+02
1.180000000000000000e+02,1.963454099999999869e+02
1.190000000000000000e+02,1.984242199999999912e+02
1.200000000000000000e+02,2.004965699999999913e+02
1.210000000000000000e+02,2.025623300000000029e+02
1.220000000000000000e+02,2.046221199999999953e+02
1.230000000000000000e+02,2.066746799999999951e+02
1.240000000000000000e+02,2.087202299999999866e+02
1.250000000000000000e+02,2.107585899999999981e+02
1.260000000000000000e+02,2.127897600000000011e+02
1.270000000000000000e+02,2.148137399999999957e+02
1.280000000000000000e+02,2.168305499999999881e+02
1.290000000000000000e+02,2.188402600000000007e+02
1.300000000000000000e+02,2.208428299999999922e+02
1.310000000000000000e+02,2.228383200000000102e+02
1.320000000000000000e+02,2.248266399999999976e+02
1.330000000000000000e+02,2.268077099999999859e+02
1.340000000000000000e+02,2.287813400000000001e+02
1.350000000000000000e+02,2.307473799999999926e+02
1.360000000000000000e+02,2.327056100000000072e+02
1.370000000000000000e+02,2.346559100000000058e+02
1.380000000000000000e+02,2.365980999999999881e+02
1.390000000000000000e+02,2.385319800000000043e+02
1.400000000000000000e+02,2.404574100000000101e+02
1.410000000000000000e+02,2.423741799999999955e+02
1.420000000000000000e+02,2.442820399999999950e+02
1.430000000000000000e+02,2.461809700000000021e+02
1.440000000000000000e+02,2.480707700000000102e+02
1.450000000000000000e+02,2.499512599999999907e+02
1.460000000000000000e+02,2.518222199999999873e+02
1.470000000000000000e+02,2.536835800000000063e+02
1.480000000000000000e+02,2.555351599999999905e+02
1.490000000000000000e+02,2.573767100000000028e+02
1.500000000000000000e+02,2.592081600000000208e+02
1.510000000000000000e+02,2.610292400000000157e+02
1.520000000000000000e+02,2.628398399999999810e+02
1.530000000000000000e+02,2.646397400000000175e+02
1.540000000000000000e+02,2.664287699999999859e+02
1.550000000000000000e+02,2.682067299999999932e+02
1.560000000000000000e+02,2.699733600000000138e+02
1.570000000000000000e+02,2.717284500000000094e+02
1.580000000000000000e+02,2.734717999999999734e+02
1.590000000000000000e+02,2.752032500000000255e+02
1.600000000000000000e+02,2.769223900000000071e+02
1.610000000000000000e+02,2.786290000000000191e+02
1.620000000000000000e+02,2.803228100000000040e+02
1.630000000000000000e+02,2.820035399999999868e+02
1.640000000000000000e+02,2.836708699999999794e+02
1.650000000000000000e+02,2.853244300000000067e+02
1.660000000000000000e+02,2.869639300000000048e+02
1.670000000000000000e+02,2.885889599999999859e+02
1.680000000000000000e+02,2.901991899999999873e+02
1.690000000000000000e+02,2.917942199999999957e+02
1.700000000000000000e+02,2.933736299999999915e+02
1.710000000000000000e+02,2.949369800000000055e+02
1.720000000000000000e+02,2.964838300000000118e+02
1.730000000000000000e+02,2.980137899999999718e+02
1.740000000000000000e+02,2.995264300000000048e+02
1.750000000000000000e+02,3.010211199999999963e+02
1.760000000000000000e+02,3.024975600000000213e+02
1.770000000000000000e+02,3.039552299999999718e+02
1.780000000000000000e+02,3.053935500000000047e+02
1.790000000000000000e+02,3.068121300000000247e+02
1.800000000000000000e+02,3.082103900000000181e+02
1.810000000000000000e+02,3.095878900000000158e+02
1.820000000000000000e+02,3.109441800000000171e+02
1.830000000000000000e+02,3.122787200000000212e+02
1.840000000000000000e+02,3.135910299999999893e+02
1.850000000000000000e+02,3.148807400000000030e+02
1.860000000000000000e+02,3.161473700000000235e+02
1.870000000000000000e+02,3.173905599999999936e+02
1.880000000000000000e+02,3.186142300000000205e+02
1.890000000000000000e+02,3.198129000000000133e+02
1.900000000000000000e+02,3.209881300000000124e+02
1.910000000000000000e+02,3.221404099999999744e+02
1.920000000000000000e+02,3.232693800000000124e+02
1.930000000000000000e+02,3.243743000000000052e+02
1.940000000000000000e+02,3.254543800000000147e+02
1.950000000000000000e+02,3.265089100000000144e+02
1.960000000000000000e+02,3.275375999999999976e+02
1.970000000000000000e+02,3.285403699999999958e+02
1.980000000000000000e+02,3.295173300000000154e+02
1.990000000000000000e+02,3.304687799999999811e+02
2.000000000000000000e+02,3.313950800000000072e+02
2.010000000000000000e+02,3.322966900000000123e+02
2.020000000000000000e+02,3.331741000000000099e+02
2.030000000000000000e+02,3.340278000000000134e+02
2.040000000000000000e+02,3.348584599999999796e+02
2.050000000000000000e+02,3.356667199999999980e+02
2.060000000000000000e+02,3.364532199999999875e+02
2.070000000000000000e+02,3.372187200000000189e+02
2.080000000000000000e+02,3.379640200000000050e+02
2.090000000000000000e+02,3.386899099999999976e+02
2.100000000000000000e+02,3.393973100000000045e+02
2.110000000000000000e+02,3.400869799999999827e+02
2.120000000000000000e+02,3.407599799999999846e+02
2.130000000000000000e+02,3.414171400000000176e+02
2.140000000000000000e+02,3.420593600000000265e+02
2.150000000000000000e+02,3.426876800000000003e+02
2.160000000000000000e+02,3.433030400000000100e+02
2.170000000000000000e+02,3.439063100000000190e+02
2.180000000000000000e+02,3.444985699999999724e+02
2.190000000000000000e+02,3.450806600000000230e+02
2.200000000000000000e+02,3.456536600000000021e+02
2.210000000000000000e+02,3.462183200000000056e+02
2.220000000000000000e+02,3.467755999999999972e+02
2.230000000000000000e+02,3.473264199999999846e+02
2.240000000000000000e+02,3.478714600000000132e+02
2.250000000000000000e+02,3.484118300000000090e+02
2.260000000000000000e+02,3.489481200000000172e+02
2.270000000000000000e+02,3.494811399999999821e+02
2.280000000000000000e+02,3.500117799999999875e+02
2.290000000000000000e+02,3.505405900000000088e+02
2.300000000000000000e+02,3.510683900000000222e+02
2.310000000000000000e+02,3.515957900000000222e+02
2.320000000000000000e+02,3.521233799999999974e+02
2.330000000000000000e+02,3.526518899999999803e+02
2.340000000000000000e+02,3.531817599999999970e+02
2.350000000000000000e+02,3.538007200000000125e+02
2.360000000000000000e+02,3.543786900000000060e+02
2.370000000000000000e+02,3.549446100000000115e+02
2.380000000000000000e+02,3.555053700000000276e+02
2.390000000000000000e+02,3.560627400000000193e+02
2.400000000000000000e+02,3.566194800000000100e+02
2.410000000000000000e+02,3.571780400000000100e+02
2.420000000000000000e+02,3.577401699999999778e+02
2.430000000000000000e+02,3.583073699999999917e+02
2.440000000000000000e+02,3.588806500000000028e+02
2.450000000000000000e+02,3.594608200000000124e+02
2.460000000000000000e+02,3.600484299999999962e+02
2.470000000000000000e+02,3.606441300000000183e+02
2.480000000000000000e+02,3.612483199999999783e+02
2.490000000000000000e+02,3.618615399999999909e+02
2.500000000000000000e+02,3.624842800000000125e+02
2.510000000000000000e+02,3.631169100000000185e+02
2.520000000000000000e+02,3.637598899999999844e+02
2.530000000000000000e+02,3.644132399999999734e+02
2.540000000000000000e+02,3.650779999999999745e+02
2.550000000000000000e+02,3.657544599999999946e+02
2.560000000000000000e+02,3.664429000000000087e+02
2.570000000000000000e+02,3.671442299999999932e+02
2.580000000000000000e+02,3.678586999999999989e+02
2.590000000000000000e+02,3.685868500000000267e+02
2.600000000000000000e+02,3.693292799999999829e+02
2.610000000000000000e+02,3.700868199999999888e+02
2.620000000000000000e+02,3.708599199999999882e+02
2.630000000000000000e+02,3.716495400000000018e+02
2.640000000000000000e+02,3.724563899999999990e+02
2.650000000000000000e+02,3.732811599999999999e+02
2.660000000000000000e+02,3.741247599999999807e+02
2.670000000000000000e+02,3.749881599999999935e+02
2.680000000000000000e+02,3.758725900000000024e+02
2.690000000000000000e+02,3.767787500000000023e+02
2.700000000000000000e+02,3.777073700000000258e+02
2.710000000000000000e+02,3.786603400000000192e+02
2.720000000000000000e+02,3.796385799999999904e+02
2.730000000000000000e+02,3.806434899999999857e+02
2.740000000000000000e+02,3.816766700000000014e+02
2.750000000000000000e+02,3.827394699999999830e+02
2.760000000000000000e+02,3.838337700000000154e+02
2.770000000000000000e+02,3.849609100000000126e+02
2.780000000000000000e+02,3.861222799999999893e+02
2.790000000000000000e+02,3.873207400000000007e+02
2.800000000000000000e+02,3.885584099999999808e+02
2.810000000000000000e+02,3.898369400000000269e+02
2.820000000000000000e+02,3.911592699999999923e+02
2.830000000000000000e+02,3.925273700000000190e+02
2.840000000000000000e+02,3.939448499999999740e+02
2.850000000000000000e+02,3.954137000000000057e+02
2.860000000000000000e+02,3.969372299999999996e+02
2.870000000000000000e+02,3.985188600000000179e+02
2.880000000000000000e+02,4.001617400000000089e+02
2.890000000000000000e+02,4.018689299999999776e+02
2.900000000000000000e+02,4.036445899999999938e+02
2.910000000000000000e+02,4.054918799999999806e+02
2.920000000000000000e+02,4.074146999999999821e+02
2.930000000000000000e+02,4.094147300000000200e+02
2.940000000000000000e+02,4.114962499999999750e+02
2.950000000000000000e+02,4.136622899999999845e+02
2.960000000000000000e+02,4.159148599999999760e+02
2.970000000000000000e+02,4.182547900000000141e+02
2.980000000000000000e+02,4.206827700000000050e+02
2.990000000000000000e+02,4.231973899999999844e+02
3.000000000000000000e+02,4.257956199999999853e+02
3.010000000000000000e+02,4.284724400000000060e+02
3.020000000000000000e+02,4.312224699999999871e+02
3.030000000000000000e+02,4.343978900000000181e+02
3.040000000000000000e+02,4.373165599999999813e+02
3.050000000000000000e+02,4.402171000000000163e+02
3.060000000000000000e+02,4.431437999999999988e+02
3.070000000000000000e+02,4.460745800000000258e+02
3.080000000000000000e+02,4.489983500000000163e+02
3.090000000000000000e+02,4.518994799999999827e+02
3.100000000000000000e+02,4.547663600000000201e+02
3.110000000000000000e+02,4.575880999999999972e+02
3.120000000000000000e+02,4.603576699999999846e+02
3.130000000000000000e+02,4.630706500000000005e+02
3.140000000000000000e+02,4.657241200000000276e+02
3.150000000000000000e+02,4.683177200000000084e+02
3.160000000000000000e+02,4.708528099999999768e+02
3.170000000000000000e+02,4.733312700000000177e+02
3.180000000000000000e+02,4.757563499999999976e+02
3.190000000000000000e+02,4.781310399999999845e+02
3.200000000000000000e+02,4.804587999999999965e+02
3.210000000000000000e+02,4.827429200000000264e+02
3.220000000000000000e+02,4.849859900000000152e+02
3.230000000000000000e+02,4.871912500000000250e+02
3.240000000000000000e+02,4.893606599999999958e+02
3.250000000000000000e+02,4.914965199999999754e+02
3.260000000000000000e+02,4.936005900000000111e+02
3.270000000000000000e+02,4.956738599999999906e+02
3.280000000000000000e+02,4.977182000000000244e+02
3.290000000000000000e+02,4.997348299999999881e+02
3.300000000000000000e+02,5.017249800000000164e+02
3.310000000000000000e+02,5.036894199999999842e+02
3.320000000000000000e+02,5.056291200000000003e+02
3.330000000000000000e+02,5.075451400000000035e+02
3.340000000000000000e+02,5.094377400000000193e+02
3.350000000000000000e+02,5.113081700000000183e+02
3.360000000000000000e+02,5.131571000000000140e+02
3.370000000000000000e+02,5.149847999999999502e+02
3.380000000000000000e+02,5.167919299999999794e+02
3.390000000000000000e+02,5.185791600000000017e+02
3.400000000000000000e+02,5.203469199999999546e+02
3.410000000000000000e+02,5.220958299999999781e+02
3.420000000000000000e+02,5.238258700000000090e+02
3.430000000000000000e+02,5.255380199999999604e+02
3.440000000000000000e+02,5.272319300000000339e+02
3.450000000000000000e+02,5.289083299999999781e+02
3.460000000000000000e+02,5.305676300000000083e+02
3.470000000000000000e+02,5.322102099999999609e+02
3.480000000000000000e+02,5.338363600000000133e+02
3.490000000000000000e+02,5.354464699999999766e+02
3.500000000000000000e+02,5.370404700000000275e+02
3.510000000000000000e+02,5.386185299999999643e+02
3.520000000000000000e+02,5.401812099999999646e+02
3.530000000000000000e+02,5.417285200000000032e+02
3.540000000000000000e+02,5.432609300000000303e+02
3.550000000000000000e+02,5.447783799999999701e+02
3.560000000000000000e+02,5.462811299999999619e+02
3.570000000000000000e+02,5.477693500000000313e+02
3.580000000000000000e+02,5.492432900000000018e+02
3.590000000000000000e+02,5.507031899999999496e+02
3.600000000000000000e+02,5.521489900000000262e+02
3.610000000000000000e+02,5.535810500000000047e+02
3.620000000000000000e+02,5.549993899999999485e+02
3.630000000000000000e+02,5.564043000000000347e+02
3.640000000000000000e+02,5.577958999999999605e+02
3.650000000000000000e+02,5.591742600000000039e+02
3.660000000000000000e+02,5.605396100000000388e+02
3.670000000000000000e+02,5.618918499999999767e+02
3.680000000000000000e+02,5.632315099999999575e+02
3.690000000000000000e+02,5.645583500000000186e+02
3.700000000000000000e+02,5.658726799999999457e+02
3.710000000000000000e+02,5.671744999999999663e+02
3.720000000000000000e+02,5.684639899999999670e+02
3.730000000000000000e+02,5.697413299999999481e+02
3.740000000000000000e+02,5.710067099999999982e+02
3.750000000000000000e+02,5.722600700000000415e+02
3.760000000000000000e+02,5.735014599999999518e+02
3.770000000000000000e+02,5.747311399999999821e+02
3.780000000000000000e+02,5.759491600000000062e+02
3.790000000000000000e+02,5.771557000000000244e+02
3.800000000000000000e+02,5.783507700000000114e+02
3.810000000000000000e+02,5.795344800000000305e+02
3.820000000000000000e+02,5.807070899999999938e+02
3.830000000000000000e+02,5.818685299999999643e+02
3.840000000000000000e+02,5.830189199999999801e+02
3.850000000000000000e+02,5.841580800000000409e+02
3.860000000000000000e+02,5.852865000000000464e+02
3.870000000000000000e+02,5.864043599999999969e+02
3.880000000000000000e+02,5.875115399999999681e+02
3.890000000000000000e+02,5.886080899999999474e+02
3.900000000000000000e+02,5.896940899999999601e+02
3.910000000000000000e+02,5.907698400000000447e+02
3.920000000000000000e+02,5.918352700000000368e+02
3.930000000000000000e+02,5.928903800000000501e+02
3.940000000000000000e+02,5.939354200000000219e+02
3.950000000000000000e+02,5.949705800000000409e+02
3.960000000000000000e+02,5.959956100000000561e+02
3.970000000000000000e+02,5.970108599999999797e+02
3.980000000000000000e+02,5.980163599999999633e+02
3.990000000000000000e+02,5.990122099999999818e+02
4.000000000000000000e+02,5.999983499999999594e+02
4.010000000000000000e+02,6.009750400000000354e+02
4.020000000000000000e+02,6.019422600000000330e+02
4.030000000000000000e+02,6.029001500000000533e+02
4.040000000000000000e+02,6.038488200000000461e+02
4.050000000000000000e+02,6.047882700000000114e+02
4.060000000000000000e+02,6.057187500000000000e+02
4.070000000000000000e+02,6.066400800000000118e+02
4.080000000000000000e+02,6.075524900000000343e+02
4.090000000000000000e+02,6.084559900000000425e+02
4.100000000000000000e+02,6.093508299999999736e+02
4.110000000000000000e+02,6.102368800000000419e+02
4.120000000000000000e+02,6.111142599999999447e+02
4.130000000000000000e+02,6.119830299999999852e+02
4.140000000000000000e+02,6.128432599999999866e+02
4.150000000000000000e+02,6.136952499999999873e+02
4.160000000000000000e+02,6.145388199999999870e+02
4.170000000000000000e+02,6.153742099999999482e+02
4.180000000000000000e+02,6.162014199999999846e+02
4.190000000000000000e+02,6.170205700000000206e+02
4.200000000000000000e+02,6.178315999999999804e+02
4.210000000000000000e+02,6.186345800000000281e+02
4.220000000000000000e+02,6.194296299999999746e+02
4.230000000000000000e+02,6.202169199999999591e+02
4.240000000000000000e+02,6.209963999999999942e+02
4.250000000000000000e+02,6.217682499999999663e+02
4.260000000000000000e+02,6.225325900000000274e+02
4.270000000000000000e+02,6.232893699999999626e+02
4.280000000000000000e+02,6.240385700000000497e+02
4.290000000000000000e+02,6.247803999999999860e+02
4.300000000000000000e+02,6.255149499999999989e+02
4.310000000000000000e+02,6.262421900000000505e+02
4.320000000000000000e+02,6.269622200000000021e+02
4.330000000000000000e+02,6.276751100000000179e+02
4.340000000000000000e+02,6.283808599999999842e+02
4.350000000000000000e+02,6.290796500000000151e+02
4.360000000000000000e+02,6.297714799999999968e+02
4.370000000000000000e+02,6.304564800000000560e+02
4.380000000000000000e+02,6.311345199999999522e+02
4.390000000000000000e+02,6.318059100000000399e+02
4.400000000000000000e+02,6.324706400000000031e+02
4.410000000000000000e+02,6.331286000000000058e+02
4.420000000000000000e+02,6.337800899999999729e+02
4.430000000000000000e+02,6.344249899999999798e+02
4.440000000000000000e+02,6.350635999999999513e+02
4.450000000000000000e+02,6.356957400000000007e+02
4.460000000000000000e+02,6.363214699999999766e+02
4.470000000000000000e+02,6.369409799999999677e+02
4.480000000000000000e+02,6.375542599999999993e+02
4.490000000000000000e+02,6.381613800000000083e+02
4.500000000000000000e+02,6.387623899999999821e+02
4.510000000000000000e+02,6.393574200000000474e+02
4.520000000000000000e+02,6.399464699999999766e+02
4.530000000000000000e+02,6.405295999999999594e+02
4.540000000000000000e+02,6.411067500000000337e+02
4.550000000000000000e+02,6.416782200000000103e+02
4.560000000000000000e+02,6.422438399999999774e+02
4.570000000000000000e+02,6.428037699999999859e+02
4.580000000000000000e+02,6.433580299999999852e+02
4.590000000000000000e+02,6.439067400000000134e+02
4.600000000000000000e+02,6.444499499999999443e+02
4.610000000000000000e+02,6.449875500000000557e+02
4.620000000000000000e+02,6.455197100000000319e+02
4.630000000000000000e+02,6.460466300000000501e+02
4.640000000000000000e+02,6.465680499999999711e+02
4.650000000000000000e+02,6.470842300000000478e+02
4.660000000000000000e+02,6.475952099999999518e+02
4.670000000000000000e+02,6.481010099999999738e+02
4.680000000000000000e+02,6.486016200000000254e+02
4.690000000000000000e+02,6.490972299999999677e+02
4.700000000000000000e+02,6.495877699999999777e+02
4.710000000000000000e+02,6.500732400000000553e+02
4.720000000000000000e+02,6.505538299999999481e+02
4.730000000000000000e+02,6.510295399999999972e+02
4.740000000000000000e+02,6.515004300000000512e+02
4.750000000000000000e+02,6.519664299999999457e+02
4.760000000000000000e+02,6.524278000000000475e+02
4.770000000000000000e+02,6.528843399999999519e+02
4.780000000000000000e+02,6.533362399999999752e+02
4.790000000000000000e+02,6.537835700000000543e+02
4.800000000000000000e+02,6.542263199999999870e+02
4.810000000000000000e+02,6.546646100000000388e+02
4.820000000000000000e+02,6.550982699999999568e+02
4.830000000000000000e+02,6.555275900000000320e+02
4.840000000000000000e+02,6.559524499999999989e+02
4.850000000000000000e+02,6.563730500000000347e+02
4.860000000000000000e+02,6.567892500000000382e+02
4.870000000000000000e+02,6.572012300000000096e+02
4.880000000000000000e+02,6.576089500000000498e+02
4.890000000000000000e+02,6.580124499999999443e+02
4.900000000000000000e+02,6.584118700000000217e+02
4.910000000000000000e+02,6.588071300000000292e+02
4.920000000000000000e+02,6.591984300000000303e+02
4.930000000000000000e+02,6.595856300000000374e+02
4.940000000000000000e+02,6.599688700000000381e+02
4.950000000000000000e+02,6.603482099999999946e+02
4.960000000000000000e+02,6.607235699999999952e+02
4.970000000000000000e+02,6.610950900000000274e+02
4.980000000000000000e+02,6.614627699999999777e+02
4.990000000000000000e+02,6.618266599999999471e+02
5.000000000000000000e+02,6.621867700000000241e+02
5.010000000000000000e+02,6.625432100000000446e+02
5.020000000000000000e+02,6.628959999999999582e+02
5.030000000000000000e+02,6.632451200000000426e+02
5.040000000000000000e+02,6.635906400000000076e+02
5.050000000000000000e+02,6.639326200000000426e+02
5.060000000000000000e+02,6.642709399999999960e+02
5.070000000000000000e+02,6.646058299999999690e+02
5.080000000000000000e+02,6.649373199999999997e+02
5.090000000000000000e+02,6.652653199999999742e+02
5.100000000000000000e+02,6.655899699999999939e+02
5.110000000000000000e+02,6.659111900000000333e+02
5.120000000000000000e+02,6.662291300000000547e+02
5.130000000000000000e+02,6.665437600000000202e+02
5.140000000000000000e+02,6.668550999999999931e+02
5.150000000000000000e+02,6.671632700000000114e+02
5.160000000000000000e+02,6.674682000000000244e+02
5.170000000000000000e+02,6.677699599999999691e+02
5.180000000000000000e+02,6.680686600000000226e+02
5.190000000000000000e+02,6.683641999999999825e+02
5.200000000000000000e+02,6.686566800000000512e+02
5.210000000000000000e+02,6.689461099999999760e+02
5.220000000000000000e+02,6.692325399999999718e+02
5.230000000000000000e+02,6.695159899999999880e+02
5.240000000000000000e+02,6.697965100000000120e+02
5.250000000000000000e+02,6.700741000000000440e+02
5.260000000000000000e+02,6.703488200000000461e+02
5.270000000000000000e+02,6.706206100000000561e+02
5.280000000000000000e+02,6.708895899999999983e+02
5.290000000000000000e+02,6.711558199999999488e+02
5.300000000000000000e+02,6.714192500000000337e+02
5.310000000000000000e+02,6.716799300000000130e+02
5.320000000000000000e+02,6.719378699999999753e+02
5.330000000000000000e+02,6.721931200000000217e+02
5.340000000000000000e+02,6.724457400000000007e+02
5.350000000000000000e+02,6.726957400000000007e+02
5.360000000000000000e+02,6.729430499999999711e+02
5.370000000000000000e+02,6.731878699999999753e+02
5.380000000000000000e+02,6.734300500000000511e+02
5.390000000000000000e+02,6.736698000000000093e+02
5.400000000000000000e+02,6.739069799999999759e+02
5.410000000000000000e+02,6.741416600000000017e+02
5.420000000000000000e+02,6.743739000000000487e+02
5.430000000000000000e+02,6.746037599999999657e+02
5.440000000000000000e+02,6.748311800000000176e+02
5.450000000000000000e+02,6.750562099999999646e+02
5.460000000000000000e+02,6.752789299999999457e+02
5.470000000000000000e+02,6.754992700000000241e+02
5.480000000000000000e+02,6.757172900000000482e+02
5.490000000000000000e+02,6.759331100000000561e+02
5.500000000000000000e+02,6.761465500000000475e+02
5.510000000000000000e+02,6.763578499999999849e+02
5.520000000000000000e+02,6.765668899999999439e+02
5.530000000000000000e+02,6.767737399999999752e+02
5.540000000000000000e+02,6.769784499999999525e+02
5.550000000000000000e+02,6.771809700000000021e+02
5.560000000000000000e+02,6.773814099999999598e+02
5.570000000000000000e+02,6.775797099999999773e+02
5.580000000000000000e+02,6.777758800000000292e+02
5.590000000000000000e+02,6.779700900000000274e+02
5.600000000000000000e+02,6.781622300000000223e+02
5.610000000000000000e+02,6.783522900000000391e+02
5.620000000000000000e+02,6.785404099999999517e+02
5.630000000000000000e+02,6.787265599999999495e+02
5.640000000000000000e+02,6.789107699999999568e+02
5.650000000000000000e+02,6.790930200000000241e+02
5.660000000000000000e+02,6.792733200000000124e+02
5.670000000000000000e+02,6.794517200000000230e+02
5.680000000000000000e+02,6.796282999999999674e+02
5.690000000000000000e+02,6.798029800000000478e+02
5.700000000000000000e+02,6.799758900000000494e+02
5.710000000000000000e+02,6.801469100000000481e+02
5.720000000000000000e+02,6.803161599999999680e+02
5.730000000000000000e+02,6.804835799999999608e+02
5.740000000000000000e+02,6.806492899999999509e+02
5.750000000000000000e+02,6.808132299999999759e+02
5.760000000000000000e+02,6.809754599999999982e+02
5.770000000000000000e+02,6.811359899999999925e+02
5.780000000000000000e+02,6.812948000000000093e+02
5.790000000000000000e+02,6.814519000000000233e+02
5.800000000000000000e+02,6.816074200000000474e+02
5.810000000000000000e+02,6.817612299999999550e+02
5.820000000000000000e+02,6.819134500000000116e+02
5.830000000000000000e+02,6.820640899999999647e+02
5.840000000000000000e+02,6.822131299999999783e+02
5.850000000000000000e+02,6.823605999999999767e+02
5.860000000000000000e+02,6.825064700000000357e+02
5.870000000000000000e+02,6.826508199999999533e+02
5.880000000000000000e+02,6.827936999999999443e+02
5.890000000000000000e+02,6.829349999999999454e+02
5.900000000000000000e+02,6.830748300000000199e+02
5.910000000000000000e+02,6.832132000000000289e+02
5.920000000000000000e+02,6.833500999999999976e+02
5.930000000000000000e+02,6.834855300000000398e+02
5.940000000000000000e+02,6.836195699999999533e+02
5.950000000000000000e+02,6.837521400000000540e+02
5.960000000000000000e+02,6.838833600000000388e+02
5.970000000000000000e+02,6.840131800000000339e+02
5.980000000000000000e+02,6.841416000000000395e+02
5.990000000000000000e+02,6.842687399999999798e+02