# Time [s], Temperature [C]
1.000000000000000000e+00,2.500000000000000000e+01
2.000000000000000000e+00,2.500000000000000000e+01
3.000000000000000000e+00,2.500000000000000000e+01
4.000000000000000000e+00,2.500000199999999850e+01
5.000000000000000000e+00,2.500000800000000112e+01
6.000000000000000000e+00,2.500005000000000166e+01
7.000000000000000000e+00,2.500022099999999980e+01
8.000000000000000000e+00,2.500078999999999851e+01
9.000000000000000000e+00,2.500236100000000050e+01
1.000000000000000000e+01,2.500610199999999850e+01
1.100000000000000000e+01,2.501396899999999945e+01
1.200000000000000000e+01,2.502888899999999950e+01
1.300000000000000000e+01,2.505482299999999896e+01
1.400000000000000000e+01,2.509672000000000125e+01
1.500000000000000000e+01,2.516558799999999962e+01
1.600000000000000000e+01,2.526230400000000031e+01
1.700000000000000000e+01,2.539474500000000035e+01
1.800000000000000000e+01,2.556998300000000057e+01
1.900000000000000000e+01,2.579472200000000015e+01
2.000000000000000000e+01,2.607537500000000108e+01
2.100000000000000000e+01,2.641790999999999912e+01
2.200000000000000000e+01,2.682775099999999924e+01
2.300000000000000000e+01,2.730970999999999904e+01
2.400000000000000000e+01,2.786793499999999923e+01
2.500000000000000000e+01,2.850584999999999880e+01
2.600000000000000000e+01,2.922619800000000012e+01
2.700000000000000000e+01,3.003099999999999881e+01
2.800000000000000000e+01,3.092162099999999825e+01
2.900000000000000000e+01,3.189883599999999930e+01
3.000000000000000000e+01,3.296285199999999804e+01
3.100000000000000000e+01,3.411346400000000045e+01
3.200000000000000000e+01,3.535003999999999991e+01
3.300000000000000000e+01,3.667167299999999841e+01
3.400000000000000000e+01,3.807712599999999981e+01
3.500000000000000000e+01,3.956497999999999848e+01
3.600000000000000000e+01,4.113359799999999922e+01
3.700000000000000000e+01,4.278117000000000303e+01
3.800000000000000000e+01,4.450575299999999856e+01
3.900000000000000000e+01,4.630529400000000351e+01
4.000000000000000000e+01,4.817764700000000033e+01
4.100000000000000000e+01,5.012068599999999918e+01
4.200000000000000000e+01,5.213218299999999772e+01
4.300000000000000000e+01,5.420993800000000107e+01
4.400000000000000000e+01,5.635177600000000098e+01
4.500000000000000000e+01,5.855540500000000037e+01
4.600000000000000000e+01,6.081870299999999929e+01
4.700000000000000000e+01,6.313941599999999710e+01
4.800000000000000000e+01,6.551533499999999322e+01
4.900000000000000000e+01,6.794433600000000695e+01
5.000000000000000000e+01,7.042427100000000451e+01
5.100000000000000000e+01,7.295305600000000368e+01
5.200000000000000000e+01,7.552870199999999556e+01
5.300000000000000000e+01,7.814913199999999449e+01
5.400000000000000000e+01,8.081250799999999401e+01
5.500000000000000000e+01,8.351691399999999987e+01
5.600000000000000000e+01,8.626039099999999848e+01
5.700000000000000000e+01,8.904119099999999776e+01
5.800000000000000000e+01,9.185748300000000199e+01
5.900000000000000000e+01,9.470754200000000367e+01
6.000000000000000000e+01,9.758961499999999489e+01
6.100000000000000000e+01,1.005020700000000033e+02
6.200000000000000000e+01,1.034446400000000068e+02
6.300000000000000000e+01,1.064139600000000030e+02
6.400000000000000000e+01,1.094088600000000042e+02
6.500000000000000000e+01,1.124280499999999989e+02
6.600000000000000000e+01,1.154701199999999943e+02
6.700000000000000000e+01,1.185340000000000060e+02
6.800000000000000000e+01,1.216184899999999942e+02
6.900000000000000000e+01,1.247225799999999936e+02
7.000000000000000000e+01,1.278450899999999990e+02
7.100000000000000000e+01,1.309851199999999949e+02
7.200000000000000000e+01,1.341416499999999985e+02
7.300000000000000000e+01,1.373136599999999987e+02
7.400000000000000000e+01,1.405000900000000001e+02
7.500000000000000000e+01,1.436998900000000106e+02
7.600000000000000000e+01,1.469120499999999936e+02
7.700000000000000000e+01,1.501354800000000012e+02
7.800000000000000000e+01,1.533691900000000032e+02
7.900000000000000000e+01,1.566120500000000106e+02
8.000000000000000000e+01,1.598629599999999868e+02
8.100000000000000000e+01,1.631208799999999997e+02
8.200000000000000000e+01,1.663848900000000128e+02
8.300000000000000000e+01,1.696539500000000089e+02
8.400000000000000000e+01,1.729271400000000085e+02
8.500000000000000000e+01,1.762035799999999881e+02
8.600000000000000000e+01,1.794823599999999999e+02
8.700000000000000000e+01,1.827626799999999889e+02
8.800000000000000000e+01,1.860436400000000106e+02
8.900000000000000000e+01,1.893244500000000130e+02
9.000000000000000000e+01,1.926042600000000107e+02
9.100000000000000000e+01,1.958822499999999991e+02
9.200000000000000000e+01,1.991574899999999957e+02
9.300000000000000000e+01,2.024292599999999993e+02
9.400000000000000000e+01,2.056966899999999896e+02
9.500000000000000000e+01,2.089590300000000127e+02
9.600000000000000000e+01,2.122155500000000075e+02
9.700000000000000000e+01,2.154654999999999916e+02
9.800000000000000000e+01,2.187082100000000082e+02
9.900000000000000000e+01,2.219429499999999962e+02
1.000000000000000000e+02,2.251689599999999984e+02
1.010000000000000000e+02,2.283855599999999981e+02
1.020000000000000000e+02,2.315919600000000003e+02
1.030000000000000000e+02,2.347873999999999910e+02
1.040000000000000000e+02,2.379711200000000133e+02
1.050000000000000000e+02,2.411423599999999965e+02
1.060000000000000000e+02,2.443003999999999962e+02
1.070000000000000000e+02,2.474445200000000114e+02
1.080000000000000000e+02,2.505740199999999902e+02
1.090000000000000000e+02,2.536881899999999916e+02
1.100000000000000000e+02,2.567863199999999892e+02
1.110000000000000000e+02,2.598678600000000074e+02
1.120000000000000000e+02,2.629320999999999913e+02
1.130000000000000000e+02,2.659781800000000089e+02
1.140000000000000000e+02,2.690055199999999900e+02
1.150000000000000000e+02,2.720154999999999745e+02
1.160000000000000000e+02,2.750042100000000005e+02
1.170000000000000000e+02,2.779727800000000002e+02
1.180000000000000000e+02,2.809216900000000123e+02
1.190000000000000000e+02,2.838503099999999790e+02
1.200000000000000000e+02,2.867567700000000173e+02
1.210000000000000000e+02,2.896384300000000280e+02
1.220000000000000000e+02,2.924925799999999754e+02
1.230000000000000000e+02,2.953171100000000138e+02
1.240000000000000000e+02,2.981098900000000071e+02
1.250000000000000000e+02,3.008689299999999776e+02
1.260000000000000000e+02,3.035919799999999782e+02
1.270000000000000000e+02,3.062767299999999864e+02
1.280000000000000000e+02,3.089208699999999794e+02
1.290000000000000000e+02,3.115217299999999909e+02
1.300000000000000000e+02,3.140765999999999849e+02
1.310000000000000000e+02,3.165826400000000262e+02
1.320000000000000000e+02,3.190370800000000031e+02
1.330000000000000000e+02,3.214370099999999866e+02
1.340000000000000000e+02,3.237795699999999783e+02
1.350000000000000000e+02,3.260619199999999864e+02
1.360000000000000000e+02,3.282813699999999812e+02
1.370000000000000000e+02,3.304353600000000029e+02
1.380000000000000000e+02,3.325218499999999722e+02
1.390000000000000000e+02,3.345388800000000060e+02
1.400000000000000000e+02,3.364851400000000012e+02
1.410000000000000000e+02,3.383597399999999880e+02
1.420000000000000000e+02,3.401625399999999786e+02
1.430000000000000000e+02,3.418937700000000177e+02
1.440000000000000000e+02,3.435543200000000184e+02
1.450000000000000000e+02,3.451458099999999831e+02
1.460000000000000000e+02,3.466705900000000042e+02
1.470000000000000000e+02,3.481315900000000170e+02
1.480000000000000000e+02,3.495321999999999889e+02
1.490000000000000000e+02,3.508765000000000214e+02
1.500000000000000000e+02,3.521688500000000204e+02
1.510000000000000000e+02,3.534141799999999876e+02
1.520000000000000000e+02,3.546174899999999752e+02
1.530000000000000000e+02,3.557839999999999918e+02
1.540000000000000000e+02,3.570050699999999892e+02
1.550000000000000000e+02,3.581778600000000097e+02
1.560000000000000000e+02,3.593175400000000081e+02
1.570000000000000000e+02,3.604228200000000015e+02
1.580000000000000000e+02,3.614989899999999921e+02
1.590000000000000000e+02,3.625598400000000083e+02
1.600000000000000000e+02,3.636164200000000051e+02
1.610000000000000000e+02,3.646758399999999938e+02
1.620000000000000000e+02,3.657434700000000021e+02
1.630000000000000000e+02,3.668233599999999797e+02
1.640000000000000000e+02,3.679190399999999954e+02
1.650000000000000000e+02,3.690335699999999974e+02
1.660000000000000000e+02,3.701699499999999716e+02
1.670000000000000000e+02,3.713311199999999985e+02
1.680000000000000000e+02,3.725201700000000073e+02
1.690000000000000000e+02,3.737401699999999778e+02
1.700000000000000000e+02,3.749943799999999783e+02
1.710000000000000000e+02,3.762857399999999757e+02
1.720000000000000000e+02,3.776179799999999886e+02
1.730000000000000000e+02,3.789943200000000161e+02
1.740000000000000000e+02,3.804193700000000149e+02
1.750000000000000000e+02,3.818970299999999725e+02
1.760000000000000000e+02,3.834319800000000100e+02
1.770000000000000000e+02,3.850296000000000163e+02
1.780000000000000000e+02,3.866955899999999815e+02
1.790000000000000000e+02,3.884373499999999808e+02
1.800000000000000000e+02,3.902611699999999928e+02
1.810000000000000000e+02,3.921754799999999932e+02
1.820000000000000000e+02,3.941888099999999895e+02
1.830000000000000000e+02,3.963133199999999761e+02
1.840000000000000000e+02,3.985593600000000265e+02
1.850000000000000000e+02,4.009408599999999865e+02
1.860000000000000000e+02,4.034742699999999900e+02
1.870000000000000000e+02,4.061755699999999933e+02
1.880000000000000000e+02,4.090648199999999974e+02
1.890000000000000000e+02,4.121662000000000035e+02
1.900000000000000000e+02,4.155022900000000163e+02
1.910000000000000000e+02,4.191012299999999868e+02
1.920000000000000000e+02,4.229935899999999833e+02
1.930000000000000000e+02,4.280613099999999918e+02
1.940000000000000000e+02,4.327357499999999959e+02
1.950000000000000000e+02,4.376322900000000118e+02
1.960000000000000000e+02,4.429433599999999842e+02
1.970000000000000000e+02,4.485966799999999921e+02
1.980000000000000000e+02,4.545465100000000120e+02
1.990000000000000000e+02,4.606930800000000090e+02
2.000000000000000000e+02,4.669163199999999847e+02
2.010000000000000000e+02,4.730917999999999779e+02
2.020000000000000000e+02,4.791188700000000154e+02
2.030000000000000000e+02,4.849352700000000027e+02
2.040000000000000000e+02,4.905185200000000236e+02
2.050000000000000000e+02,4.958692599999999970e+02
2.060000000000000000e+02,5.010051599999999894e+02
2.070000000000000000e+02,5.059545600000000150e+02
2.080000000000000000e+02,5.107470700000000079e+02
2.090000000000000000e+02,5.154015500000000429e+02
2.100000000000000000e+02,5.199335899999999810e+02
2.110000000000000000e+02,5.243532699999999522e+02
2.120000000000000000e+02,5.286703499999999849e+02
2.130000000000000000e+02,5.328920900000000529e+02
2.140000000000000000e+02,5.370258800000000292e+02
2.150000000000000000e+02,5.410767200000000230e+02
2.160000000000000000e+02,5.450494999999999663e+02
2.170000000000000000e+02,5.489483000000000175e+02
2.180000000000000000e+02,5.527773399999999810e+02
2.190000000000000000e+02,5.565402199999999766e+02
2.200000000000000000e+02,5.602399900000000343e+02
2.210000000000000000e+02,5.638787200000000439e+02
2.220000000000000000e+02,5.674591699999999719e+02
2.230000000000000000e+02,5.709841300000000501e+02
2.240000000000000000e+02,5.744546500000000151e+02
2.250000000000000000e+02,5.778738399999999729e+02
2.260000000000000000e+02,5.812427400000000262e+02
2.270000000000000000e+02,5.845630499999999756e+02
2.280000000000000000e+02,5.878360599999999749e+02
2.290000000000000000e+02,5.910632900000000518e+02
2.300000000000000000e+02,5.942460899999999810e+02
2.310000000000000000e+02,5.973854999999999791e+02
2.320000000000000000e+02,6.004824200000000474e+02
2.330000000000000000e+02,6.035381499999999733e+02
2.340000000000000000e+02,6.065539599999999609e+02
2.350000000000000000e+02,6.095303300000000490e+02
2.360000000000000000e+02,6.124682000000000244e+02
2.370000000000000000e+02,6.153681000000000267e+02
2.380000000000000000e+02,6.182309599999999818e+02
2.390000000000000000e+02,6.210574299999999539e+02
2.400000000000000000e+02,6.238482699999999568e+02
2.410000000000000000e+02,6.266041900000000169e+02
2.420000000000000000e+02,6.293256800000000339e+02
2.430000000000000000e+02,6.320131800000000339e+02
2.440000000000000000e+02,6.346672399999999925e+02
2.450000000000000000e+02,6.372887600000000248e+02
2.460000000000000000e+02,6.398777499999999918e+02
2.470000000000000000e+02,6.424351799999999457e+02
2.480000000000000000e+02,6.449608799999999746e+02
2.490000000000000000e+02,6.474556900000000041e+02
2.500000000000000000e+02,6.499202900000000227e+02
2.510000000000000000e+02,6.523544900000000553e+02
2.520000000000000000e+02,6.547590300000000525e+02
2.530000000000000000e+02,6.571342799999999897e+02
2.540000000000000000e+02,6.594804100000000062e+02
2.550000000000000000e+02,6.617981600000000526e+02
2.560000000000000000e+02,6.640877100000000155e+02
2.570000000000000000e+02,6.663494899999999461e+02
2.580000000000000000e+02,6.685835600000000341e+02
2.590000000000000000e+02,6.707905299999999897e+02
2.600000000000000000e+02,6.729706999999999653e+02
2.610000000000000000e+02,6.751242700000000241e+02
2.620000000000000000e+02,6.772517100000000028e+02
2.630000000000000000e+02,6.793532099999999900e+02
2.640000000000000000e+02,6.814292599999999993e+02
2.650000000000000000e+02,6.834798600000000306e+02
2.660000000000000000e+02,6.855054900000000089e+02
2.670000000000000000e+02,6.875064700000000357e+02
2.680000000000000000e+02,6.894830299999999852e+02
2.690000000000000000e+02,6.914355500000000347e+02
2.700000000000000000e+02,6.933638300000000072e+02
2.710000000000000000e+02,6.952688000000000557e+02
2.720000000000000000e+02,6.971507000000000289e+02
2.730000000000000000e+02,6.990092799999999897e+02
2.740000000000000000e+02,7.008449699999999893e+02
2.750000000000000000e+02,7.026583299999999781e+02
2.760000000000000000e+02,7.044492800000000443e+02
2.770000000000000000e+02,7.062184399999999869e+02
2.780000000000000000e+02,7.079656400000000076e+02
2.790000000000000000e+02,7.096914100000000190e+02
2.800000000000000000e+02,7.113962400000000343e+02
2.810000000000000000e+02,7.130797099999999773e+02
2.820000000000000000e+02,7.147424899999999752e+02
2.830000000000000000e+02,7.163846399999999903e+02
2.840000000000000000e+02,7.180066500000000360e+02
2.850000000000000000e+02,7.196085799999999608e+02
2.860000000000000000e+02,7.211907999999999674e+02
2.870000000000000000e+02,7.227533600000000433e+02
2.880000000000000000e+02,7.242965100000000120e+02
2.890000000000000000e+02,7.258204299999999876e+02
2.900000000000000000e+02,7.273254399999999578e+02
2.910000000000000000e+02,7.288118299999999863e+02
2.920000000000000000e+02,7.302796600000000353e+02
2.930000000000000000e+02,7.317292499999999791e+02
2.940000000000000000e+02,7.331607099999999946e+02
2.950000000000000000e+02,7.345743999999999687e+02
2.960000000000000000e+02,7.359703399999999647e+02
2.970000000000000000e+02,7.373490600000000086e+02
2.980000000000000000e+02,7.387103899999999612e+02
2.990000000000000000e+02,7.400547500000000127e+02
3.000000000000000000e+02,7.413822000000000116e+02
3.010000000000000000e+02,7.426930499999999711e+02
3.020000000000000000e+02,7.439875500000000557e+02
3.030000000000000000e+02,7.452655600000000504e+02
3.040000000000000000e+02,7.465276499999999942e+02
3.050000000000000000e+02,7.477739299999999503e+02
3.060000000000000000e+02,7.490044599999999946e+02
3.070000000000000000e+02,7.502195400000000518e+02
3.080000000000000000e+02,7.514193099999999959e+02
3.090000000000000000e+02,7.526039399999999659e+02
3.100000000000000000e+02,7.537736200000000508e+02
3.110000000000000000e+02,7.549285300000000234e+02
3.120000000000000000e+02,7.560687900000000354e+02
3.130000000000000000e+02,7.571947599999999738e+02
3.140000000000000000e+02,7.583064600000000155e+02
3.150000000000000000e+02,7.594039299999999457e+02
3.160000000000000000e+02,7.604876100000000179e+02
3.170000000000000000e+02,7.615576200000000426e+02
3.180000000000000000e+02,7.626138899999999694e+02
3.190000000000000000e+02,7.636568600000000515e+02
3.200000000000000000e+02,7.646865800000000490e+02
3.210000000000000000e+02,7.657031200000000126e+02
3.220000000000000000e+02,7.667068500000000313e+02
3.230000000000000000e+02,7.676976899999999659e+02
3.240000000000000000e+02,7.686760299999999688e+02
3.250000000000000000e+02,7.696417800000000398e+02
3.260000000000000000e+02,7.705952800000000025e+02
3.270000000000000000e+02,7.715366199999999708e+02
3.280000000000000000e+02,7.724658799999999701e+02
3.290000000000000000e+02,7.733833600000000388e+02
3.300000000000000000e+02,7.742890599999999495e+02
3.310000000000000000e+02,7.751831100000000561e+02
3.320000000000000000e+02,7.760657300000000305e+02
3.330000000000000000e+02,7.769370699999999488e+02
3.340000000000000000e+02,7.777972399999999880e+02
3.350000000000000000e+02,7.786464200000000346e+02
3.360000000000000000e+02,7.794846800000000258e+02
3.370000000000000000e+02,7.803121899999999869e+02
3.380000000000000000e+02,7.811290900000000192e+02
3.390000000000000000e+02,7.819354200000000219e+02
3.400000000000000000e+02,7.827314499999999953e+02
3.410000000000000000e+02,7.835172099999999773e+02
3.420000000000000000e+02,7.842928500000000440e+02
3.430000000000000000e+02,7.850585300000000188e+02
3.440000000000000000e+02,7.858143300000000409e+02
3.450000000000000000e+02,7.865604200000000219e+02
3.460000000000000000e+02,7.872968100000000504e+02
3.470000000000000000e+02,7.880238000000000511e+02
3.480000000000000000e+02,7.887413900000000240e+02
3.490000000000000000e+02,7.894497099999999818e+02
3.500000000000000000e+02,7.901488600000000133e+02
3.510000000000000000e+02,7.908389300000000048e+02
3.520000000000000000e+02,7.915201399999999694e+02
3.530000000000000000e+02,7.921925700000000461e+02
3.540000000000000000e+02,7.928561399999999821e+02
3.550000000000000000e+02,7.935112900000000309e+02
3.560000000000000000e+02,7.941579000000000406e+02
3.570000000000000000e+02,7.947960199999999986e+02
3.580000000000000000e+02,7.954260299999999688e+02
3.590000000000000000e+02,7.960477300000000014e+02
3.600000000000000000e+02,7.966614399999999705e+02
3.610000000000000000e+02,7.972672099999999773e+02
3.620000000000000000e+02,7.978650499999999965e+02
3.630000000000000000e+02,7.984551400000000285e+02
3.640000000000000000e+02,7.990375400000000354e+02
3.650000000000000000e+02,7.996124300000000176e+02
3.660000000000000000e+02,8.001797500000000127e+02
3.670000000000000000e+02,8.007397499999999582e+02
3.680000000000000000e+02,8.012924799999999550e+02
3.690000000000000000e+02,8.018378900000000158e+02
3.700000000000000000e+02,8.023762799999999515e+02
3.710000000000000000e+02,8.029077099999999518e+02
3.720000000000000000e+02,8.034321300000000292e+02
3.730000000000000000e+02,8.039497699999999440e+02
3.740000000000000000e+02,8.044606300000000374e+02
3.750000000000000000e+02,8.049647800000000188e+02
3.760000000000000000e+02,8.054624000000000024e+02
3.770000000000000000e+02,8.059534899999999880e+02
3.780000000000000000e+02,8.064382299999999759e+02
3.790000000000000000e+02,8.069165600000000040e+02
3.800000000000000000e+02,8.073886700000000474e+02
3.810000000000000000e+02,8.078546099999999797e+02
3.820000000000000000e+02,8.083144499999999653e+02
3.830000000000000000e+02,8.087683100000000422e+02
3.840000000000000000e+02,8.092162499999999454e+02
3.850000000000000000e+02,8.096582600000000411e+02
3.860000000000000000e+02,8.100944799999999759e+02
3.870000000000000000e+02,8.105250200000000405e+02
3.880000000000000000e+02,8.109498899999999821e+02
3.890000000000000000e+02,8.113691400000000158e+02
3.900000000000000000e+02,8.117829600000000028e+02
3.910000000000000000e+02,8.121913500000000568e+02
3.920000000000000000e+02,8.125943600000000515e+02
3.930000000000000000e+02,8.129921299999999746e+02
3.940000000000000000e+02,8.133846399999999903e+02
3.950000000000000000e+02,8.137720299999999725e+02
3.960000000000000000e+02,8.141543000000000347e+02
3.970000000000000000e+02,8.145314899999999625e+02
3.980000000000000000e+02,8.149038100000000213e+02
3.990000000000000000e+02,8.152711799999999585e+02
4.000000000000000000e+02,8.156337899999999763e+02
4.010000000000000000e+02,8.159915799999999990e+02
4.020000000000000000e+02,8.163446699999999510e+02
4.030000000000000000e+02,8.166931200000000217e+02
4.040000000000000000e+02,8.170369899999999461e+02
4.050000000000000000e+02,8.173762799999999515e+02
4.060000000000000000e+02,8.177111800000000130e+02
4.070000000000000000e+02,8.180416300000000547e+02
4.080000000000000000e+02,8.183677400000000262e+02
4.090000000000000000e+02,8.186895100000000411e+02
4.100000000000000000e+02,8.190070799999999736e+02
4.110000000000000000e+02,8.193205000000000382e+02
4.120000000000000000e+02,8.196297600000000330e+02
4.130000000000000000e+02,8.199349399999999832e+02
4.140000000000000000e+02,8.202360800000000154e+02
4.150000000000000000e+02,8.205332600000000411e+02
4.160000000000000000e+02,8.208265400000000227e+02
4.170000000000000000e+02,8.211159099999999853e+02
4.180000000000000000e+02,8.214014300000000048e+02
4.190000000000000000e+02,8.216832299999999805e+02
4.200000000000000000e+02,8.219613000000000511e+02
4.210000000000000000e+02,8.222357200000000148e+02
4.220000000000000000e+02,8.225064700000000357e+02
4.230000000000000000e+02,8.227736800000000130e+02
4.240000000000000000e+02,8.230373499999999467e+02
4.250000000000000000e+02,8.232975500000000011e+02
4.260000000000000000e+02,8.235543199999999615e+02
4.270000000000000000e+02,8.238076200000000426e+02
4.280000000000000000e+02,8.240576800000000048e+02
4.290000000000000000e+02,8.243043199999999615e+02
4.300000000000000000e+02,8.245477899999999636e+02
4.310000000000000000e+02,8.247879599999999982e+02
4.320000000000000000e+02,8.250249599999999646e+02
4.330000000000000000e+02,8.252589100000000144e+02
4.340000000000000000e+02,8.254896899999999960e+02
4.350000000000000000e+02,8.257174099999999726e+02
4.360000000000000000e+02,8.259421399999999949e+02
4.370000000000000000e+02,8.261638799999999492e+02
4.380000000000000000e+02,8.263826900000000251e+02
4.390000000000000000e+02,8.265986299999999574e+02
4.400000000000000000e+02,8.268116499999999860e+02
4.410000000000000000e+02,8.270219100000000481e+02
4.420000000000000000e+02,8.272293100000000550e+02
4.430000000000000000e+02,8.274340200000000323e+02
4.440000000000000000e+02,8.276359899999999925e+02
4.450000000000000000e+02,8.278352700000000368e+02
4.460000000000000000e+02,8.280319799999999759e+02
4.470000000000000000e+02,8.282260099999999738e+02
4.480000000000000000e+02,8.284174799999999550e+02
4.490000000000000000e+02,8.286063799999999446e+02
4.500000000000000000e+02,8.287928500000000440e+02
4.510000000000000000e+02,8.289767500000000382e+02
4.520000000000000000e+02,8.291582600000000411e+02
4.530000000000000000e+02,8.293374000000000024e+02
4.540000000000000000e+02,8.295140999999999849e+02
4.550000000000000000e+02,8.296884800000000268e+02
4.560000000000000000e+02,8.298605300000000398e+02
4.570000000000000000e+02,8.300303300000000490e+02
4.580000000000000000e+02,8.301978100000000040e+02
4.590000000000000000e+02,8.303631599999999935e+02
4.600000000000000000e+02,8.305262500000000045e+02
4.610000000000000000e+02,8.306871899999999869e+02
4.620000000000000000e+02,8.308459500000000162e+02
4.630000000000000000e+02,8.310026199999999790e+02
4.640000000000000000e+02,8.311572300000000268e+02
4.650000000000000000e+02,8.313098099999999704e+02
4.660000000000000000e+02,8.314603299999999990e+02
4.670000000000000000e+02,8.316088300000000118e+02
4.680000000000000000e+02,8.317553699999999708e+02
4.690000000000000000e+02,8.318999599999999646e+02
4.700000000000000000e+02,8.320426599999999553e+02
4.710000000000000000e+02,8.321834099999999808e+02
4.720000000000000000e+02,8.323223299999999654e+02
4.730000000000000000e+02,8.324593499999999722e+02
4.740000000000000000e+02,8.325946000000000140e+02
4.750000000000000000e+02,8.327280299999999897e+02
4.760000000000000000e+02,8.328596800000000258e+02
4.770000000000000000e+02,8.329895599999999831e+02
4.780000000000000000e+02,8.331177400000000262e+02
4.790000000000000000e+02,8.332441999999999780e+02
4.800000000000000000e+02,8.333690199999999777e+02
4.810000000000000000e+02,8.334921299999999746e+02
4.820000000000000000e+02,8.336135900000000447e+02
4.830000000000000000e+02,8.337334600000000364e+02
4.840000000000000000e+02,8.338517500000000382e+02
4.850000000000000000e+02,8.339684399999999869e+02
4.860000000000000000e+02,8.340835600000000341e+02
4.870000000000000000e+02,8.341971999999999525e+02
4.880000000000000000e+02,8.343092699999999695e+02
4.890000000000000000e+02,8.344198599999999715e+02
4.900000000000000000e+02,8.345289900000000216e+02
4.910000000000000000e+02,8.346366600000000062e+02
4.920000000000000000e+02,8.347429200000000264e+02
4.930000000000000000e+02,8.348477199999999812e+02
4.940000000000000000e+02,8.349511700000000474e+02
4.950000000000000000e+02,8.350532200000000103e+02
4.960000000000000000e+02,8.351538699999999835e+02
4.970000000000000000e+02,8.352532300000000305e+02
4.980000000000000000e+02,8.353512600000000248e+02
4.990000000000000000e+02,8.354479400000000169e+02
5.000000000000000000e+02,8.355434000000000196e+02
5.010000000000000000e+02,8.356375100000000202e+02
5.020000000000000000e+02,8.357304100000000062e+02
5.030000000000000000e+02,8.358220800000000281e+02
5.040000000000000000e+02,8.359125400000000354e+02
5.050000000000000000e+02,8.360017699999999650e+02
5.060000000000000000e+02,8.360897800000000188e+02
5.070000000000000000e+02,8.361766400000000203e+02
5.080000000000000000e+02,8.362623300000000199e+02
5.090000000000000000e+02,8.363469199999999546e+02
5.100000000000000000e+02,8.364303599999999506e+02
5.110000000000000000e+02,8.365126299999999446e+02
5.120000000000000000e+02,8.365938700000000381e+02
5.130000000000000000e+02,8.366740099999999529e+02
5.140000000000000000e+02,8.367531099999999924e+02
5.150000000000000000e+02,8.368311200000000554e+02
5.160000000000000000e+02,8.369080800000000409e+02
5.170000000000000000e+02,8.369840100000000120e+02
5.180000000000000000e+02,8.370589599999999564e+02
5.190000000000000000e+02,8.371328700000000254e+02
5.200000000000000000e+02,8.372058100000000422e+02
5.210000000000000000e+02,8.372777700000000323e+02
5.220000000000000000e+02,8.373488200000000461e+02
5.230000000000000000e+02,8.374188799999999446e+02
5.240000000000000000e+02,8.374879799999999932e+02
5.250000000000000000e+02,8.375562099999999646e+02
5.260000000000000000e+02,8.376234699999999975e+02
5.270000000000000000e+02,8.376898800000000165e+02
5.280000000000000000e+02,8.377553699999999708e+02
5.290000000000000000e+02,8.378200100000000248e+02
5.300000000000000000e+02,8.378837899999999763e+02
5.310000000000000000e+02,8.379467200000000275e+02
5.320000000000000000e+02,8.380087899999999763e+02
5.330000000000000000e+02,8.380700100000000248e+02
5.340000000000000000e+02,8.381304900000000089e+02
5.350000000000000000e+02,8.381901199999999790e+02
5.360000000000000000e+02,8.382489000000000487e+02
5.370000000000000000e+02,8.383069500000000289e+02
5.380000000000000000e+02,8.383641999999999825e+02
5.390000000000000000e+02,8.384207199999999602e+02
5.400000000000000000e+02,8.384764400000000251e+02
5.410000000000000000e+02,8.385314300000000003e+02
5.420000000000000000e+02,8.385857499999999618e+02
5.430000000000000000e+02,8.386392799999999852e+02
5.440000000000000000e+02,8.386920800000000327e+02
5.450000000000000000e+02,8.387441999999999780e+02
5.460000000000000000e+02,8.387956500000000233e+02
5.470000000000000000e+02,8.388463699999999790e+02
5.480000000000000000e+02,8.388964200000000346e+02
5.490000000000000000e+02,8.389457999999999629e+02
5.500000000000000000e+02,8.389945699999999533e+02
5.510000000000000000e+02,8.390425999999999931e+02
5.520000000000000000e+02,8.390900900000000320e+02
5.530000000000000000e+02,8.391368400000000065e+02
5.540000000000000000e+02,8.391830400000000054e+02
5.550000000000000000e+02,8.392285799999999654e+02
5.560000000000000000e+02,8.392735599999999749e+02
5.570000000000000000e+02,8.393178699999999708e+02
5.580000000000000000e+02,8.393616299999999910e+02
5.590000000000000000e+02,8.394048500000000104e+02
5.600000000000000000e+02,8.394473900000000413e+02
5.610000000000000000e+02,8.394894399999999450e+02
5.620000000000000000e+02,8.395308800000000247e+02
5.630000000000000000e+02,8.395717799999999897e+02
5.640000000000000000e+02,8.396121200000000044e+02
5.650000000000000000e+02,8.396519799999999805e+02
5.660000000000000000e+02,8.396912200000000439e+02
5.670000000000000000e+02,8.397299799999999550e+02
5.680000000000000000e+02,8.397682499999999663e+02
5.690000000000000000e+02,8.398059700000000021e+02
5.700000000000000000e+02,8.398432000000000244e+02
5.710000000000000000e+02,8.398799400000000333e+02
5.720000000000000000e+02,8.399162000000000035e+02
5.730000000000000000e+02,8.399519699999999602e+02
5.740000000000000000e+02,8.399871799999999666e+02
5.750000000000000000e+02,8.400220299999999725e+02
5.760000000000000000e+02,8.400563399999999774e+02
5.770000000000000000e+02,8.400902099999999564e+02
5.780000000000000000e+02,8.401236599999999726e+02
5.790000000000000000e+02,8.401566199999999753e+02
5.800000000000000000e+02,8.401892100000000028e+02
5.810000000000000000e+02,8.402213100000000168e+02
5.820000000000000000e+02,8.402529899999999543e+02
5.830000000000000000e+02,8.402842399999999543e+02
5.840000000000000000e+02,8.403150600000000168e+02
5.850000000000000000e+02,8.403454600000000028e+02
5.860000000000000000e+02,8.403754900000000134e+02
5.870000000000000000e+02,8.404050899999999729e+02
5.880000000000000000e+02,8.404343300000000454e+02
5.890000000000000000e+02,8.404631299999999783e+02
5.900000000000000000e+02,8.404915799999999990e+02
5.910000000000000000e+02,8.405195899999999938e+02
5.920000000000000000e+02,8.405472999999999502e+02
5.930000000000000000e+02,8.405745799999999690e+02
5.940000000000000000e+02,8.406015599999999495e+02
5.950000000000000000e+02,8.406281099999999924e+02
5.960000000000000000e+02,8.406543599999999969e+02
5.970000000000000000e+02,8.406802400000000262e+02
5.980000000000000000e+02,8.407057499999999663e+02
5.990000000000000000e+02,8.407309599999999818e+02