# Time [s], Thickness [m]
1.000000000000000000e+00,8.000000400000000303e-03
2.000000000000000000e+00,8.000000400000000303e-03
3.000000000000000000e+00,8.000000400000000303e-03
4.000000000000000000e+00,8.000000400000000303e-03
5.000000000000000000e+00,8.000000400000000303e-03
6.000000000000000000e+00,7.999999400000000829e-03
7.000000000000000000e+00,7.999998499999999221e-03
8.000000000000000000e+00,7.999992900000000781e-03
9.000000000000000000e+00,7.999964999999999507e-03
1.000000000000000000e+01,7.999853200000000414e-03
1.100000000000000000e+01,7.999509599999999471e-03
1.200000000000000000e+01,7.998652800000000465e-03
1.300000000000000000e+01,7.996822699999999590e-03
1.400000000000000000e+01,7.993447600000000083e-03
1.500000000000000000e+01,7.988103700000000543e-03
1.600000000000000000e+01,7.980762000000000619e-03
1.700000000000000000e+01,7.970605000000000398e-03
1.800000000000000000e+01,7.961215500000000389e-03
1.900000000000000000e+01,7.950107600000000732e-03
2.000000000000000000e+01,7.939303300000000521e-03
2.100000000000000000e+01,7.928477600000000819e-03
2.200000000000000000e+01,7.918409100000000853e-03
2.300000000000000000e+01,7.909187999999999288e-03
2.400000000000000000e+01,7.901204699999999151e-03
2.500000000000000000e+01,7.893841699999999337e-03
2.600000000000000000e+01,7.886323100000000239e-03
2.700000000000000000e+01,7.877840699999999474e-03
2.800000000000000000e+01,7.868282500000000484e-03
2.900000000000000000e+01,7.858119900000000088e-03
3.000000000000000000e+01,7.847826900000000327e-03
3.100000000000000000e+01,7.837781699999999199e-03
3.200000000000000000e+01,7.828255200000000177e-03
3.300000000000000000e+01,7.819408599999999251e-03
3.400000000000000000e+01,7.811252000000000299e-03
3.500000000000000000e+01,7.803588600000000396e-03
3.600000000000000000e+01,7.796031400000000278e-03
3.700000000000000000e+01,7.788155199999999799e-03
3.800000000000000000e+01,7.779735599999999633e-03
3.900000000000000000e+01,7.770827000000000116e-03
4.000000000000000000e+01,7.761657699999999736e-03
4.100000000000000000e+01,7.752490199999999970e-03
4.200000000000000000e+01,7.743549500000000349e-03
4.300000000000000000e+01,7.734990199999999816e-03
4.400000000000000000e+01,7.726884899999999709e-03
4.500000000000000000e+01,7.719200100000000314e-03
4.600000000000000000e+01,7.711800700000000230e-03
4.700000000000000000e+01,7.704482399999999613e-03
4.800000000000000000e+01,7.697037900000000196e-03
4.900000000000000000e+01,7.689338199999999623e-03
5.000000000000000000e+01,7.681368899999999923e-03
5.100000000000000000e+01,7.673208100000000406e-03
5.200000000000000000e+01,7.664986399999999638e-03
5.300000000000000000e+01,7.656834099999999983e-03
5.400000000000000000e+01,7.648860999999999855e-03
5.500000000000000000e+01,7.641135700000000093e-03
5.600000000000000000e+01,7.633679499999999722e-03
5.700000000000000000e+01,7.626456200000000275e-03
5.800000000000000000e+01,7.619386100000000162e-03
5.900000000000000000e+01,7.612362000000000122e-03
6.000000000000000000e+01,7.605279799999999785e-03
6.100000000000000000e+01,7.598071799999999917e-03
6.200000000000000000e+01,7.590718599999999976e-03
6.300000000000000000e+01,7.583247000000000425e-03
6.400000000000000000e+01,7.575716799999999973e-03
6.500000000000000000e+01,7.568195500000000388e-03
6.600000000000000000e+01,7.560748100000000416e-03
6.700000000000000000e+01,7.551776199999999696e-03
6.800000000000000000e+01,7.543943400000000139e-03
6.900000000000000000e+01,7.536488600000000246e-03
7.000000000000000000e+01,7.529385900000000291e-03
7.100000000000000000e+01,7.522439599999999893e-03
7.200000000000000000e+01,7.515483499999999623e-03
7.300000000000000000e+01,7.508443200000000130e-03
7.400000000000000000e+01,7.501278099999999713e-03
7.500000000000000000e+01,7.494006299999999773e-03
7.600000000000000000e+01,7.486666599999999665e-03
7.700000000000000000e+01,7.479310999999999772e-03
7.800000000000000000e+01,7.471988899999999593e-03
7.900000000000000000e+01,7.464738099999999876e-03
8.000000000000000000e+01,7.457580000000000112e-03
8.100000000000000000e+01,7.450517700000000056e-03
8.200000000000000000e+01,7.443536500000000333e-03
8.300000000000000000e+01,7.436602399999999759e-03
8.400000000000000000e+01,7.429677499999999719e-03
8.500000000000000000e+01,7.422721499999999917e-03
8.600000000000000000e+01,7.415703499999999788e-03
8.700000000000000000e+01,7.408606400000000008e-03
8.800000000000000000e+01,7.401431400000000119e-03
8.900000000000000000e+01,7.394192299999999621e-03
9.000000000000000000e+01,7.386910699999999809e-03
9.100000000000000000e+01,7.379612399999999940e-03
9.200000000000000000e+01,7.372321599999999593e-03
9.300000000000000000e+01,7.365054000000000219e-03
9.400000000000000000e+01,7.357815699999999993e-03
9.500000000000000000e+01,7.350603100000000292e-03
9.600000000000000000e+01,7.343401200000000337e-03
9.700000000000000000e+01,7.336190000000000246e-03
9.800000000000000000e+01,7.328947100000000187e-03
9.900000000000000000e+01,7.321651099999999801e-03
1.000000000000000000e+02,7.314289499999999597e-03
1.010000000000000000e+02,7.306856999999999935e-03
1.020000000000000000e+02,7.299357099999999841e-03
1.030000000000000000e+02,7.291800299999999860e-03
1.040000000000000000e+02,7.284199800000000155e-03
1.050000000000000000e+02,7.276568599999999956e-03
1.060000000000000000e+02,7.268915899999999798e-03
1.070000000000000000e+02,7.261245500000000110e-03
1.080000000000000000e+02,7.253555600000000277e-03
1.090000000000000000e+02,7.245837199999999832e-03
1.100000000000000000e+02,7.238076999999999879e-03
1.110000000000000000e+02,7.230260399999999775e-03
1.120000000000000000e+02,7.222374400000000291e-03
1.130000000000000000e+02,7.214409300000000289e-03
1.140000000000000000e+02,7.206359399999999991e-03
1.150000000000000000e+02,7.198227100000000218e-03
1.160000000000000000e+02,7.190014699999999585e-03
1.170000000000000000e+02,7.181731099999999826e-03
1.180000000000000000e+02,7.173379900000000434e-03
1.190000000000000000e+02,7.164964900000000102e-03
1.200000000000000000e+02,7.156486600000000302e-03
1.210000000000000000e+02,7.147939899999999729e-03
1.220000000000000000e+02,7.139314899999999776e-03
1.230000000000000000e+02,7.129471699999999877e-03
1.240000000000000000e+02,7.120119900000000147e-03
1.250000000000000000e+02,7.110868600000000428e-03
1.260000000000000000e+02,7.101625700000000103e-03
1.270000000000000000e+02,7.092335299999999627e-03
1.280000000000000000e+02,7.082975499999999772e-03
1.290000000000000000e+02,7.073535100000000186e-03
1.300000000000000000e+02,7.064006799999999683e-03
1.310000000000000000e+02,7.054381999999999667e-03
1.320000000000000000e+02,7.044649699999999855e-03
1.330000000000000000e+02,7.034797199999999820e-03
1.340000000000000000e+02,7.024813000000000411e-03
1.350000000000000000e+02,7.014684400000000333e-03
1.360000000000000000e+02,7.004403499999999928e-03
1.370000000000000000e+02,6.993967599999999576e-03
1.380000000000000000e+02,6.983375200000000067e-03
1.390000000000000000e+02,6.972631899999999841e-03
1.400000000000000000e+02,6.961742400000000067e-03
1.410000000000000000e+02,6.950712300000000052e-03
1.420000000000000000e+02,6.939548999999999718e-03
1.430000000000000000e+02,6.928256199999999893e-03
1.440000000000000000e+02,6.916837799999999738e-03
1.450000000000000000e+02,6.905298699999999623e-03
1.460000000000000000e+02,6.893642200000000241e-03
1.470000000000000000e+02,6.881874999999999971e-03
1.480000000000000000e+02,6.870005299999999877e-03
1.490000000000000000e+02,6.858042400000000094e-03
1.500000000000000000e+02,6.845998600000000045e-03
1.510000000000000000e+02,6.833887700000000100e-03
1.520000000000000000e+02,6.821722700000000354e-03
1.530000000000000000e+02,6.809516800000000106e-03
1.540000000000000000e+02,6.797283000000000318e-03
1.550000000000000000e+02,6.785032300000000405e-03
1.560000000000000000e+02,6.772774700000000307e-03
1.570000000000000000e+02,6.760519900000000297e-03
1.580000000000000000e+02,6.748278199999999984e-03
1.590000000000000000e+02,6.736059200000000038e-03
1.600000000000000000e+02,6.723871900000000061e-03
1.610000000000000000e+02,6.710747300000000082e-03
1.620000000000000000e+02,6.698100799999999640e-03
1.630000000000000000e+02,6.685730099999999572e-03
1.640000000000000000e+02,6.673551599999999993e-03
1.650000000000000000e+02,6.661523600000000128e-03
1.660000000000000000e+02,6.649621799999999930e-03
1.670000000000000000e+02,6.637834500000000179e-03
1.680000000000000000e+02,6.626156200000000301e-03
1.690000000000000000e+02,6.614585899999999956e-03
1.700000000000000000e+02,6.603123600000000010e-03
1.710000000000000000e+02,6.591771700000000414e-03
1.720000000000000000e+02,6.580531100000000175e-03
1.730000000000000000e+02,6.569405999999999857e-03
1.740000000000000000e+02,6.558398299999999674e-03
1.750000000000000000e+02,6.547513399999999734e-03
1.760000000000000000e+02,6.536755699999999801e-03
1.770000000000000000e+02,6.526130699999999583e-03
1.780000000000000000e+02,6.515646800000000211e-03
1.790000000000000000e+02,6.505310999999999733e-03
1.800000000000000000e+02,6.495131599999999679e-03
1.810000000000000000e+02,6.485119000000000127e-03
1.820000000000000000e+02,6.475282399999999876e-03
1.830000000000000000e+02,6.465632899999999676e-03
1.840000000000000000e+02,6.456183300000000423e-03
1.850000000000000000e+02,6.446946900000000147e-03
1.860000000000000000e+02,6.437939600000000366e-03
1.870000000000000000e+02,6.429179099999999744e-03
1.880000000000000000e+02,6.420686400000000238e-03
1.890000000000000000e+02,6.412483299999999740e-03
1.900000000000000000e+02,6.404595899999999779e-03
1.910000000000000000e+02,6.397053599999999972e-03
1.920000000000000000e+02,6.389887999999999818e-03
1.930000000000000000e+02,6.383135899999999724e-03
1.940000000000000000e+02,6.376837800000000056e-03
1.950000000000000000e+02,6.371037999999999875e-03
1.960000000000000000e+02,6.365783499999999595e-03
1.970000000000000000e+02,6.361121299999999631e-03
1.980000000000000000e+02,6.357095699999999912e-03
1.990000000000000000e+02,6.353740600000000287e-03
2.000000000000000000e+02,6.351070000000000326e-03
2.010000000000000000e+02,6.349068599999999583e-03
2.020000000000000000e+02,6.347677200000000422e-03
2.030000000000000000e+02,6.346795700000000366e-03
2.040000000000000000e+02,6.346291399999999701e-03
2.050000000000000000e+02,6.346031099999999842e-03
2.060000000000000000e+02,6.345908199999999999e-03
2.070000000000000000e+02,6.345853200000000326e-03
2.080000000000000000e+02,6.345829499999999616e-03
2.090000000000000000e+02,6.345819200000000007e-03
2.100000000000000000e+02,6.345815000000000310e-03
2.110000000000000000e+02,6.345812699999999959e-03
2.120000000000000000e+02,6.345811800000000086e-03
2.130000000000000000e+02,6.345811300000000349e-03
2.140000000000000000e+02,6.345811300000000349e-03
2.150000000000000000e+02,6.345811300000000349e-03
2.160000000000000000e+02,6.345811300000000349e-03
2.170000000000000000e+02,6.345811300000000349e-03
2.180000000000000000e+02,6.345811300000000349e-03
2.190000000000000000e+02,6.345810799999999745e-03
2.200000000000000000e+02,6.345810799999999745e-03
2.210000000000000000e+02,6.345810799999999745e-03
2.220000000000000000e+02,6.345810799999999745e-03
2.230000000000000000e+02,6.345810799999999745e-03
2.240000000000000000e+02,6.345810799999999745e-03
2.250000000000000000e+02,6.345810799999999745e-03
2.260000000000000000e+02,6.345810799999999745e-03
2.270000000000000000e+02,6.345810799999999745e-03
2.280000000000000000e+02,6.345810799999999745e-03
2.290000000000000000e+02,6.345810799999999745e-03
2.300000000000000000e+02,6.345810799999999745e-03
2.310000000000000000e+02,6.345810799999999745e-03
2.320000000000000000e+02,6.345810799999999745e-03
2.330000000000000000e+02,6.345810799999999745e-03
2.340000000000000000e+02,6.345810799999999745e-03
2.350000000000000000e+02,6.345810799999999745e-03
2.360000000000000000e+02,6.345810799999999745e-03
2.370000000000000000e+02,6.345810799999999745e-03
2.380000000000000000e+02,6.345810799999999745e-03
2.390000000000000000e+02,6.345810799999999745e-03
2.400000000000000000e+02,6.345810799999999745e-03
2.410000000000000000e+02,6.345810799999999745e-03
2.420000000000000000e+02,6.345810799999999745e-03
2.430000000000000000e+02,6.345810799999999745e-03
2.440000000000000000e+02,6.345810799999999745e-03
2.450000000000000000e+02,6.345810799999999745e-03
2.460000000000000000e+02,6.345810799999999745e-03
2.470000000000000000e+02,6.345810799999999745e-03
2.480000000000000000e+02,6.345810799999999745e-03
2.490000000000000000e+02,6.345810799999999745e-03
2.500000000000000000e+02,6.345810799999999745e-03
2.510000000000000000e+02,6.345810799999999745e-03
2.520000000000000000e+02,6.345810799999999745e-03
2.530000000000000000e+02,6.345810799999999745e-03
2.540000000000000000e+02,6.345810799999999745e-03
2.550000000000000000e+02,6.345810799999999745e-03
2.560000000000000000e+02,6.345810799999999745e-03
2.570000000000000000e+02,6.345810799999999745e-03
2.580000000000000000e+02,6.345810799999999745e-03
2.590000000000000000e+02,6.345810799999999745e-03
2.600000000000000000e+02,6.345810799999999745e-03
2.610000000000000000e+02,6.345810799999999745e-03
2.620000000000000000e+02,6.345810799999999745e-03
2.630000000000000000e+02,6.345810799999999745e-03
2.640000000000000000e+02,6.345810799999999745e-03
2.650000000000000000e+02,6.345810799999999745e-03
2.660000000000000000e+02,6.345810799999999745e-03
2.670000000000000000e+02,6.345810799999999745e-03
2.680000000000000000e+02,6.345810799999999745e-03
2.690000000000000000e+02,6.345810799999999745e-03
2.700000000000000000e+02,6.345810799999999745e-03
2.710000000000000000e+02,6.345810799999999745e-03
2.720000000000000000e+02,6.345810799999999745e-03
2.730000000000000000e+02,6.345810799999999745e-03
2.740000000000000000e+02,6.345810799999999745e-03
2.750000000000000000e+02,6.345810799999999745e-03
2.760000000000000000e+02,6.345810799999999745e-03
2.770000000000000000e+02,6.345810799999999745e-03
2.780000000000000000e+02,6.345810799999999745e-03
2.790000000000000000e+02,6.345810799999999745e-03
2.800000000000000000e+02,6.345810799999999745e-03
2.810000000000000000e+02,6.345810799999999745e-03
2.820000000000000000e+02,6.345810799999999745e-03
2.830000000000000000e+02,6.345810799999999745e-03
2.840000000000000000e+02,6.345810799999999745e-03
2.850000000000000000e+02,6.345810799999999745e-03
2.860000000000000000e+02,6.345810799999999745e-03
2.870000000000000000e+02,6.345810799999999745e-03
2.880000000000000000e+02,6.345810799999999745e-03
2.890000000000000000e+02,6.345810799999999745e-03
2.900000000000000000e+02,6.345810799999999745e-03
2.910000000000000000e+02,6.345810799999999745e-03
2.920000000000000000e+02,6.345810799999999745e-03
2.930000000000000000e+02,6.345810799999999745e-03
2.940000000000000000e+02,6.345810799999999745e-03
2.950000000000000000e+02,6.345810799999999745e-03
2.960000000000000000e+02,6.345810799999999745e-03
2.970000000000000000e+02,6.345810799999999745e-03
2.980000000000000000e+02,6.345810799999999745e-03
2.990000000000000000e+02,6.345810799999999745e-03
3.000000000000000000e+02,6.345810799999999745e-03
3.010000000000000000e+02,6.345810799999999745e-03
3.020000000000000000e+02,6.345810799999999745e-03
3.030000000000000000e+02,6.345810799999999745e-03
3.040000000000000000e+02,6.345810799999999745e-03
3.050000000000000000e+02,6.345810799999999745e-03
3.060000000000000000e+02,6.345810799999999745e-03
3.070000000000000000e+02,6.345810799999999745e-03
3.080000000000000000e+02,6.345810799999999745e-03
3.090000000000000000e+02,6.345810799999999745e-03
3.100000000000000000e+02,6.345810799999999745e-03
3.110000000000000000e+02,6.345810799999999745e-03
3.120000000000000000e+02,6.345810799999999745e-03
3.130000000000000000e+02,6.345810799999999745e-03
3.140000000000000000e+02,6.345810799999999745e-03
3.150000000000000000e+02,6.345810799999999745e-03
3.160000000000000000e+02,6.345810799999999745e-03
3.170000000000000000e+02,6.345810799999999745e-03
3.180000000000000000e+02,6.345810799999999745e-03
3.190000000000000000e+02,6.345810799999999745e-03
3.200000000000000000e+02,6.345810799999999745e-03
3.210000000000000000e+02,6.345810799999999745e-03
3.220000000000000000e+02,6.345810799999999745e-03
3.230000000000000000e+02,6.345810799999999745e-03
3.240000000000000000e+02,6.345810799999999745e-03
3.250000000000000000e+02,6.345810799999999745e-03
3.260000000000000000e+02,6.345810799999999745e-03
3.270000000000000000e+02,6.345810799999999745e-03
3.280000000000000000e+02,6.345810799999999745e-03
3.290000000000000000e+02,6.345810799999999745e-03
3.300000000000000000e+02,6.345810799999999745e-03
3.310000000000000000e+02,6.345810799999999745e-03
3.320000000000000000e+02,6.345810799999999745e-03
3.330000000000000000e+02,6.345810799999999745e-03
3.340000000000000000e+02,6.345810799999999745e-03
3.350000000000000000e+02,6.345810799999999745e-03
3.360000000000000000e+02,6.345810799999999745e-03
3.370000000000000000e+02,6.345810799999999745e-03
3.380000000000000000e+02,6.345810799999999745e-03
3.390000000000000000e+02,6.345810799999999745e-03
3.400000000000000000e+02,6.345810799999999745e-03
3.410000000000000000e+02,6.345810799999999745e-03
3.420000000000000000e+02,6.345810799999999745e-03
3.430000000000000000e+02,6.345810799999999745e-03
3.440000000000000000e+02,6.345810799999999745e-03
3.450000000000000000e+02,6.345810799999999745e-03
3.460000000000000000e+02,6.345810799999999745e-03
3.470000000000000000e+02,6.345810799999999745e-03
3.480000000000000000e+02,6.345810799999999745e-03
3.490000000000000000e+02,6.345810799999999745e-03
3.500000000000000000e+02,6.345810799999999745e-03
3.510000000000000000e+02,6.345810799999999745e-03
3.520000000000000000e+02,6.345810799999999745e-03
3.530000000000000000e+02,6.345810799999999745e-03
3.540000000000000000e+02,6.345810799999999745e-03
3.550000000000000000e+02,6.345810799999999745e-03
3.560000000000000000e+02,6.345810799999999745e-03
3.570000000000000000e+02,6.345810799999999745e-03
3.580000000000000000e+02,6.345810799999999745e-03
3.590000000000000000e+02,6.345810799999999745e-03
3.600000000000000000e+02,6.345810799999999745e-03
3.610000000000000000e+02,6.345810799999999745e-03
3.620000000000000000e+02,6.345810799999999745e-03
3.630000000000000000e+02,6.345810799999999745e-03
3.640000000000000000e+02,6.345810799999999745e-03
3.650000000000000000e+02,6.345810799999999745e-03
3.660000000000000000e+02,6.345810799999999745e-03
3.670000000000000000e+02,6.345810799999999745e-03
3.680000000000000000e+02,6.345810799999999745e-03
3.690000000000000000e+02,6.345810799999999745e-03
3.700000000000000000e+02,6.345810799999999745e-03
3.710000000000000000e+02,6.345810799999999745e-03
3.720000000000000000e+02,6.345810799999999745e-03
3.730000000000000000e+02,6.345810799999999745e-03
3.740000000000000000e+02,6.345810799999999745e-03
3.750000000000000000e+02,6.345810799999999745e-03
3.760000000000000000e+02,6.345810799999999745e-03
3.770000000000000000e+02,6.345810799999999745e-03
3.780000000000000000e+02,6.345810799999999745e-03
3.790000000000000000e+02,6.345810799999999745e-03
3.800000000000000000e+02,6.345810799999999745e-03
3.810000000000000000e+02,6.345810799999999745e-03
3.820000000000000000e+02,6.345810799999999745e-03
3.830000000000000000e+02,6.345810799999999745e-03
3.840000000000000000e+02,6.345810799999999745e-03
3.850000000000000000e+02,6.345810799999999745e-03
3.860000000000000000e+02,6.345810799999999745e-03
3.870000000000000000e+02,6.345810799999999745e-03
3.880000000000000000e+02,6.345810799999999745e-03
3.890000000000000000e+02,6.345810799999999745e-03
3.900000000000000000e+02,6.345810799999999745e-03
3.910000000000000000e+02,6.345810799999999745e-03
3.920000000000000000e+02,6.345810799999999745e-03
3.930000000000000000e+02,6.345810799999999745e-03
3.940000000000000000e+02,6.345810799999999745e-03
3.950000000000000000e+02,6.345810799999999745e-03
3.960000000000000000e+02,6.345810799999999745e-03
3.970000000000000000e+02,6.345810799999999745e-03
3.980000000000000000e+02,6.345810799999999745e-03
3.990000000000000000e+02,6.345810799999999745e-03
4.000000000000000000e+02,6.345810799999999745e-03
4.010000000000000000e+02,6.345810799999999745e-03
4.020000000000000000e+02,6.345810799999999745e-03
4.030000000000000000e+02,6.345810799999999745e-03
4.040000000000000000e+02,6.345810799999999745e-03
4.050000000000000000e+02,6.345810799999999745e-03
4.060000000000000000e+02,6.345810799999999745e-03
4.070000000000000000e+02,6.345810799999999745e-03
4.080000000000000000e+02,6.345810799999999745e-03
4.090000000000000000e+02,6.345810799999999745e-03
4.100000000000000000e+02,6.345810799999999745e-03
4.110000000000000000e+02,6.345810799999999745e-03
4.120000000000000000e+02,6.345810799999999745e-03
4.130000000000000000e+02,6.345810799999999745e-03
4.140000000000000000e+02,6.345810799999999745e-03
4.150000000000000000e+02,6.345810799999999745e-03
4.160000000000000000e+02,6.345810799999999745e-03
4.170000000000000000e+02,6.345810799999999745e-03
4.180000000000000000e+02,6.345810799999999745e-03
4.190000000000000000e+02,6.345810799999999745e-03
4.200000000000000000e+02,6.345810799999999745e-03
4.210000000000000000e+02,6.345810799999999745e-03
4.220000000000000000e+02,6.345810799999999745e-03
4.230000000000000000e+02,6.345810799999999745e-03
4.240000000000000000e+02,6.345810799999999745e-03
4.250000000000000000e+02,6.345810799999999745e-03
4.260000000000000000e+02,6.345810799999999745e-03
4.270000000000000000e+02,6.345810799999999745e-03
4.280000000000000000e+02,6.345810799999999745e-03
4.290000000000000000e+02,6.345810799999999745e-03
4.300000000000000000e+02,6.345810799999999745e-03
4.310000000000000000e+02,6.345810799999999745e-03
4.320000000000000000e+02,6.345810799999999745e-03
4.330000000000000000e+02,6.345810799999999745e-03
4.340000000000000000e+02,6.345810799999999745e-03
4.350000000000000000e+02,6.345810799999999745e-03
4.360000000000000000e+02,6.345810799999999745e-03
4.370000000000000000e+02,6.345810799999999745e-03
4.380000000000000000e+02,6.345810799999999745e-03
4.390000000000000000e+02,6.345810799999999745e-03
4.400000000000000000e+02,6.345810799999999745e-03
4.410000000000000000e+02,6.345810799999999745e-03
4.420000000000000000e+02,6.345810799999999745e-03
4.430000000000000000e+02,6.345810799999999745e-03
4.440000000000000000e+02,6.345810799999999745e-03
4.450000000000000000e+02,6.345810799999999745e-03
4.460000000000000000e+02,6.345810799999999745e-03
4.470000000000000000e+02,6.345810799999999745e-03
4.480000000000000000e+02,6.345810799999999745e-03
4.490000000000000000e+02,6.345810799999999745e-03
4.500000000000000000e+02,6.345810799999999745e-03
4.510000000000000000e+02,6.345810799999999745e-03
4.520000000000000000e+02,6.345810799999999745e-03
4.530000000000000000e+02,6.345810799999999745e-03
4.540000000000000000e+02,6.345810799999999745e-03
4.550000000000000000e+02,6.345810799999999745e-03
4.560000000000000000e+02,6.345810799999999745e-03
4.570000000000000000e+02,6.345810799999999745e-03
4.580000000000000000e+02,6.345810799999999745e-03
4.590000000000000000e+02,6.345810799999999745e-03
4.600000000000000000e+02,6.345810799999999745e-03
4.610000000000000000e+02,6.345810799999999745e-03
4.620000000000000000e+02,6.345810799999999745e-03
4.630000000000000000e+02,6.345810799999999745e-03
4.640000000000000000e+02,6.345810799999999745e-03
4.650000000000000000e+02,6.345810799999999745e-03
4.660000000000000000e+02,6.345810799999999745e-03
4.670000000000000000e+02,6.345810799999999745e-03
4.680000000000000000e+02,6.345810799999999745e-03
4.690000000000000000e+02,6.345810799999999745e-03
4.700000000000000000e+02,6.345810799999999745e-03
4.710000000000000000e+02,6.345810799999999745e-03
4.720000000000000000e+02,6.345810799999999745e-03
4.730000000000000000e+02,6.345810799999999745e-03
4.740000000000000000e+02,6.345810799999999745e-03
4.750000000000000000e+02,6.345810799999999745e-03
4.760000000000000000e+02,6.345810799999999745e-03
4.770000000000000000e+02,6.345810799999999745e-03
4.780000000000000000e+02,6.345810799999999745e-03
4.790000000000000000e+02,6.345810799999999745e-03
4.800000000000000000e+02,6.345810799999999745e-03
4.810000000000000000e+02,6.345810799999999745e-03
4.820000000000000000e+02,6.345810799999999745e-03
4.830000000000000000e+02,6.345810799999999745e-03
4.840000000000000000e+02,6.345810799999999745e-03
4.850000000000000000e+02,6.345810799999999745e-03
4.860000000000000000e+02,6.345810799999999745e-03
4.870000000000000000e+02,6.345810799999999745e-03
4.880000000000000000e+02,6.345810799999999745e-03
4.890000000000000000e+02,6.345810799999999745e-03
4.900000000000000000e+02,6.345810799999999745e-03
4.910000000000000000e+02,6.345810799999999745e-03
4.920000000000000000e+02,6.345810799999999745e-03
4.930000000000000000e+02,6.345810799999999745e-03
4.940000000000000000e+02,6.345810799999999745e-03
4.950000000000000000e+02,6.345810799999999745e-03
4.960000000000000000e+02,6.345810799999999745e-03
4.970000000000000000e+02,6.345810799999999745e-03
4.980000000000000000e+02,6.345810799999999745e-03
4.990000000000000000e+02,6.345810799999999745e-03
5.000000000000000000e+02,6.345810799999999745e-03
5.010000000000000000e+02,6.345810799999999745e-03
5.020000000000000000e+02,6.345810799999999745e-03
5.030000000000000000e+02,6.345810799999999745e-03
5.040000000000000000e+02,6.345810799999999745e-03
5.050000000000000000e+02,6.345810799999999745e-03
5.060000000000000000e+02,6.345810799999999745e-03
5.070000000000000000e+02,6.345810799999999745e-03
5.080000000000000000e+02,6.345810799999999745e-03
5.090000000000000000e+02,6.345810799999999745e-03
5.100000000000000000e+02,6.345810799999999745e-03
5.110000000000000000e+02,6.345810799999999745e-03
5.120000000000000000e+02,6.345810799999999745e-03
5.130000000000000000e+02,6.345810799999999745e-03
5.140000000000000000e+02,6.345810799999999745e-03
5.150000000000000000e+02,6.345810799999999745e-03
5.160000000000000000e+02,6.345810799999999745e-03
5.170000000000000000e+02,6.345810799999999745e-03
5.180000000000000000e+02,6.345810799999999745e-03
5.190000000000000000e+02,6.345810799999999745e-03
5.200000000000000000e+02,6.345810799999999745e-03
5.210000000000000000e+02,6.345810799999999745e-03
5.220000000000000000e+02,6.345810799999999745e-03
5.230000000000000000e+02,6.345810799999999745e-03
5.240000000000000000e+02,6.345810799999999745e-03
5.250000000000000000e+02,6.345810799999999745e-03
5.260000000000000000e+02,6.345810799999999745e-03
5.270000000000000000e+02,6.345810799999999745e-03
5.280000000000000000e+02,6.345810799999999745e-03
5.290000000000000000e+02,6.345810799999999745e-03
5.300000000000000000e+02,6.345810799999999745e-03
5.310000000000000000e+02,6.345810799999999745e-03
5.320000000000000000e+02,6.345810799999999745e-03
5.330000000000000000e+02,6.345810799999999745e-03
5.340000000000000000e+02,6.345810799999999745e-03
5.350000000000000000e+02,6.345810799999999745e-03
5.360000000000000000e+02,6.345810799999999745e-03
5.370000000000000000e+02,6.345810799999999745e-03
5.380000000000000000e+02,6.345810799999999745e-03
5.390000000000000000e+02,6.345810799999999745e-03
5.400000000000000000e+02,6.345810799999999745e-03
5.410000000000000000e+02,6.345810799999999745e-03
5.420000000000000000e+02,6.345810799999999745e-03
5.430000000000000000e+02,6.345810799999999745e-03
5.440000000000000000e+02,6.345810799999999745e-03
5.450000000000000000e+02,6.345810799999999745e-03
5.460000000000000000e+02,6.345810799999999745e-03
5.470000000000000000e+02,6.345810799999999745e-03
5.480000000000000000e+02,6.345810799999999745e-03
5.490000000000000000e+02,6.345810799999999745e-03
5.500000000000000000e+02,6.345810799999999745e-03
5.510000000000000000e+02,6.345810799999999745e-03
5.520000000000000000e+02,6.345810799999999745e-03
5.530000000000000000e+02,6.345810799999999745e-03
5.540000000000000000e+02,6.345810799999999745e-03
5.550000000000000000e+02,6.345810799999999745e-03
5.560000000000000000e+02,6.345810799999999745e-03
5.570000000000000000e+02,6.345810799999999745e-03
5.580000000000000000e+02,6.345810799999999745e-03
5.590000000000000000e+02,6.345810799999999745e-03
5.600000000000000000e+02,6.345810799999999745e-03
5.610000000000000000e+02,6.345810799999999745e-03
5.620000000000000000e+02,6.345810799999999745e-03
5.630000000000000000e+02,6.345810799999999745e-03
5.640000000000000000e+02,6.345810799999999745e-03
5.650000000000000000e+02,6.345810799999999745e-03
5.660000000000000000e+02,6.345810799999999745e-03
5.670000000000000000e+02,6.345810799999999745e-03
5.680000000000000000e+02,6.345810799999999745e-03
5.690000000000000000e+02,6.345810799999999745e-03
5.700000000000000000e+02,6.345810799999999745e-03
5.710000000000000000e+02,6.345810799999999745e-03
5.720000000000000000e+02,6.345810799999999745e-03
5.730000000000000000e+02,6.345810799999999745e-03
5.740000000000000000e+02,6.345810799999999745e-03
5.750000000000000000e+02,6.345810799999999745e-03
5.760000000000000000e+02,6.345810799999999745e-03
5.770000000000000000e+02,6.345810799999999745e-03
5.780000000000000000e+02,6.345810799999999745e-03
5.790000000000000000e+02,6.345810799999999745e-03
5.800000000000000000e+02,6.345810799999999745e-03
5.810000000000000000e+02,6.345810799999999745e-03
5.820000000000000000e+02,6.345810799999999745e-03
5.830000000000000000e+02,6.345810799999999745e-03
5.840000000000000000e+02,6.345810799999999745e-03
5.850000000000000000e+02,6.345810799999999745e-03
5.860000000000000000e+02,6.345810799999999745e-03
5.870000000000000000e+02,6.345810799999999745e-03
5.880000000000000000e+02,6.345810799999999745e-03
5.890000000000000000e+02,6.345810799999999745e-03
5.900000000000000000e+02,6.345810799999999745e-03
5.910000000000000000e+02,6.345810799999999745e-03
5.920000000000000000e+02,6.345810799999999745e-03
5.930000000000000000e+02,6.345810799999999745e-03
5.940000000000000000e+02,6.345810799999999745e-03
5.950000000000000000e+02,6.345810799999999745e-03
5.960000000000000000e+02,6.345810799999999745e-03
5.970000000000000000e+02,6.345810799999999745e-03
5.980000000000000000e+02,6.345810799999999745e-03
5.990000000000000000e+02,6.345810799999999745e-03