# Time [s], Temperature [C]
1.000000000000000000e+00,2.499997099999999861e+01
2.000000000000000000e+00,7.321036499999999592e+01
3.000000000000000000e+00,1.003662199999999984e+02
4.000000000000000000e+00,1.224423400000000015e+02
5.000000000000000000e+00,1.407894100000000037e+02
6.000000000000000000e+00,1.568459900000000005e+02
7.000000000000000000e+00,1.711613600000000019e+02
8.000000000000000000e+00,1.841485099999999875e+02
9.000000000000000000e+00,1.960612199999999916e+02
1.000000000000000000e+01,2.070880300000000034e+02
1.100000000000000000e+01,2.173698599999999885e+02
1.200000000000000000e+01,2.270212199999999996e+02
1.300000000000000000e+01,2.361441499999999962e+02
1.400000000000000000e+01,2.448363799999999912e+02
1.500000000000000000e+01,2.531897899999999879e+02
1.600000000000000000e+01,2.612757899999999722e+02
1.700000000000000000e+01,2.691132499999999936e+02
1.800000000000000000e+01,2.766576200000000085e+02
1.900000000000000000e+01,2.838439300000000003e+02
2.000000000000000000e+01,2.906407800000000066e+02
2.100000000000000000e+01,2.970547799999999938e+02
2.200000000000000000e+01,3.031217300000000137e+02
2.300000000000000000e+01,3.088832400000000007e+02
2.400000000000000000e+01,3.143616900000000101e+02
2.500000000000000000e+01,3.195814199999999801e+02
2.600000000000000000e+01,3.245670499999999947e+02
2.700000000000000000e+01,3.293122299999999996e+02
2.800000000000000000e+01,3.338279400000000123e+02
2.900000000000000000e+01,3.381442599999999743e+02
3.000000000000000000e+01,3.422260400000000118e+02
3.100000000000000000e+01,3.460878599999999778e+02
3.200000000000000000e+01,3.497866799999999898e+02
3.300000000000000000e+01,3.532450000000000045e+02
3.400000000000000000e+01,3.565008900000000267e+02
3.500000000000000000e+01,3.596611599999999953e+02
3.600000000000000000e+01,3.625814500000000180e+02
3.700000000000000000e+01,3.653426200000000108e+02
3.800000000000000000e+01,3.681154199999999719e+02
3.900000000000000000e+01,3.706516700000000242e+02
4.000000000000000000e+01,3.730935699999999997e+02
4.100000000000000000e+01,3.756711099999999988e+02
4.200000000000000000e+01,3.779977099999999837e+02
4.300000000000000000e+01,3.802983100000000150e+02
4.400000000000000000e+01,3.830106200000000172e+02
4.500000000000000000e+01,3.817406300000000101e+02
4.600000000000000000e+01,3.847720600000000104e+02
4.700000000000000000e+01,3.868225699999999847e+02
4.800000000000000000e+01,3.892037000000000262e+02
4.900000000000000000e+01,3.914128999999999792e+02
5.000000000000000000e+01,3.940794099999999958e+02
5.100000000000000000e+01,3.963404800000000137e+02
5.200000000000000000e+01,3.987253999999999792e+02
5.300000000000000000e+01,4.014301500000000260e+02
5.400000000000000000e+01,4.037452700000000050e+02
5.500000000000000000e+01,4.061677199999999743e+02
5.600000000000000000e+01,4.088796699999999760e+02
5.700000000000000000e+01,4.111838099999999940e+02
5.800000000000000000e+01,4.135787399999999820e+02
5.900000000000000000e+01,4.162192400000000134e+02
6.000000000000000000e+01,4.184503500000000145e+02
6.100000000000000000e+01,4.207694700000000125e+02
6.200000000000000000e+01,4.232649200000000178e+02
6.300000000000000000e+01,4.254203800000000228e+02
6.400000000000000000e+01,4.276347400000000221e+02
6.500000000000000000e+01,4.299863599999999906e+02
6.600000000000000000e+01,4.320611900000000105e+02
6.700000000000000000e+01,4.341859699999999975e+02
6.800000000000000000e+01,4.364185200000000009e+02
6.900000000000000000e+01,4.384282799999999725e+02
7.000000000000000000e+01,4.404848600000000260e+02
7.100000000000000000e+01,4.426105299999999829e+02
7.200000000000000000e+01,4.445647000000000162e+02
7.300000000000000000e+01,4.465471499999999878e+02
7.400000000000000000e+01,4.485672299999999950e+02
7.500000000000000000e+01,4.504646000000000186e+02
7.600000000000000000e+01,4.523492699999999900e+02
7.700000000000000000e+01,4.542801799999999730e+02
7.800000000000000000e+01,4.560825500000000261e+02
7.900000000000000000e+01,4.578877600000000143e+02
8.000000000000000000e+01,4.597054099999999721e+02
8.100000000000000000e+01,4.614270000000000209e+02
8.200000000000000000e+01,4.631458700000000022e+02
8.300000000000000000e+01,4.648594699999999875e+02
8.400000000000000000e+01,4.665174900000000093e+02
8.500000000000000000e+01,4.681492000000000075e+02
8.600000000000000000e+01,4.698015399999999886e+02
8.700000000000000000e+01,4.713793299999999817e+02
8.800000000000000000e+01,4.729576099999999883e+02
8.900000000000000000e+01,4.745345500000000243e+02
9.000000000000000000e+01,4.760593299999999886e+02
9.100000000000000000e+01,4.775785799999999881e+02
9.200000000000000000e+01,4.790868500000000267e+02
9.300000000000000000e+01,4.805643000000000029e+02
9.400000000000000000e+01,4.820262799999999856e+02
9.500000000000000000e+01,4.834702500000000214e+02
9.600000000000000000e+01,4.848908700000000067e+02
9.700000000000000000e+01,4.862940100000000143e+02
9.800000000000000000e+01,4.876848400000000083e+02
9.900000000000000000e+01,4.890507799999999747e+02
1.000000000000000000e+02,4.903888200000000097e+02
1.010000000000000000e+02,4.917352599999999825e+02
1.020000000000000000e+02,4.930364999999999895e+02
1.030000000000000000e+02,4.943392900000000054e+02
1.040000000000000000e+02,4.956231099999999969e+02
1.050000000000000000e+02,4.968935500000000047e+02
1.060000000000000000e+02,4.981421199999999772e+02
1.070000000000000000e+02,4.993908099999999877e+02
1.080000000000000000e+02,5.006080000000000041e+02
1.090000000000000000e+02,5.018317599999999743e+02
1.100000000000000000e+02,5.030279199999999946e+02
1.110000000000000000e+02,5.042262900000000059e+02
1.120000000000000000e+02,5.053901399999999740e+02
1.130000000000000000e+02,5.065708900000000199e+02
1.140000000000000000e+02,5.077061800000000176e+02
1.150000000000000000e+02,5.088544899999999984e+02
1.160000000000000000e+02,5.099760699999999929e+02
1.170000000000000000e+02,5.111056199999999876e+02
1.180000000000000000e+02,5.121946400000000494e+02
1.190000000000000000e+02,5.132954099999999471e+02
1.200000000000000000e+02,5.143673700000000508e+02
1.210000000000000000e+02,5.154459200000000010e+02
1.220000000000000000e+02,5.165080000000000382e+02
1.230000000000000000e+02,5.175568799999999783e+02
1.240000000000000000e+02,5.185946699999999510e+02
1.250000000000000000e+02,5.196323899999999867e+02
1.260000000000000000e+02,5.206399499999999989e+02
1.270000000000000000e+02,5.252369999999999663e+02
1.280000000000000000e+02,5.177110599999999749e+02
1.290000000000000000e+02,5.216616800000000467e+02
1.300000000000000000e+02,5.196845100000000457e+02
1.310000000000000000e+02,5.224564199999999801e+02
1.320000000000000000e+02,5.218456400000000031e+02
1.330000000000000000e+02,5.240322300000000268e+02
1.340000000000000000e+02,5.240010399999999890e+02
1.350000000000000000e+02,5.258355099999999993e+02
1.360000000000000000e+02,5.261002799999999979e+02
1.370000000000000000e+02,5.277077600000000075e+02
1.380000000000000000e+02,5.281416000000000395e+02
1.390000000000000000e+02,5.295778199999999742e+02
1.400000000000000000e+02,5.301270799999999781e+02
1.410000000000000000e+02,5.314394499999999653e+02
1.420000000000000000e+02,5.320552999999999884e+02
1.430000000000000000e+02,5.332841200000000299e+02
1.440000000000000000e+02,5.339433599999999842e+02
1.450000000000000000e+02,5.350885600000000295e+02
1.460000000000000000e+02,5.357897299999999632e+02
1.470000000000000000e+02,5.368718900000000076e+02
1.480000000000000000e+02,5.375960700000000543e+02
1.490000000000000000e+02,5.386313499999999976e+02
1.500000000000000000e+02,5.393677400000000262e+02
1.510000000000000000e+02,5.403627300000000560e+02
1.520000000000000000e+02,5.411038200000000415e+02
1.530000000000000000e+02,5.420581700000000183e+02
1.540000000000000000e+02,5.428058499999999640e+02
1.550000000000000000e+02,5.437406600000000481e+02
1.560000000000000000e+02,5.444833399999999983e+02
1.570000000000000000e+02,5.453883100000000468e+02
1.580000000000000000e+02,5.461378799999999956e+02
1.590000000000000000e+02,5.470123300000000199e+02
1.600000000000000000e+02,5.477594000000000278e+02
1.610000000000000000e+02,5.486143799999999828e+02
1.620000000000000000e+02,5.493580899999999474e+02
1.630000000000000000e+02,5.501868899999999485e+02
1.640000000000000000e+02,5.509305399999999509e+02
1.650000000000000000e+02,5.517427999999999884e+02
1.660000000000000000e+02,5.524783899999999903e+02
1.670000000000000000e+02,5.532781999999999698e+02
1.680000000000000000e+02,5.540006700000000137e+02
1.690000000000000000e+02,5.547855200000000195e+02
1.700000000000000000e+02,5.555075699999999870e+02
1.710000000000000000e+02,5.562768600000000561e+02
1.720000000000000000e+02,5.569836400000000367e+02
1.730000000000000000e+02,5.577441400000000158e+02
1.740000000000000000e+02,5.584461700000000519e+02
1.750000000000000000e+02,5.591859100000000353e+02
1.760000000000000000e+02,5.598811600000000226e+02
1.770000000000000000e+02,5.606172500000000127e+02
1.780000000000000000e+02,5.612990700000000288e+02
1.790000000000000000e+02,5.620230099999999993e+02
1.800000000000000000e+02,5.626987900000000309e+02
1.810000000000000000e+02,5.634027700000000323e+02
1.820000000000000000e+02,5.640803200000000288e+02
1.830000000000000000e+02,5.647716100000000097e+02
1.840000000000000000e+02,5.654369500000000244e+02
1.850000000000000000e+02,5.661242700000000241e+02
1.860000000000000000e+02,5.667751500000000533e+02
1.870000000000000000e+02,5.674491000000000440e+02
1.880000000000000000e+02,5.680963100000000168e+02
1.890000000000000000e+02,5.687616000000000440e+02
1.900000000000000000e+02,5.693952600000000075e+02
1.910000000000000000e+02,5.700548099999999749e+02
1.920000000000000000e+02,5.704088100000000168e+02
1.930000000000000000e+02,5.708087799999999561e+02
1.940000000000000000e+02,5.713964799999999968e+02
1.950000000000000000e+02,5.719057599999999866e+02
1.960000000000000000e+02,5.724531899999999496e+02
1.970000000000000000e+02,5.730357699999999568e+02
1.980000000000000000e+02,5.735918599999999969e+02
1.990000000000000000e+02,5.742016599999999471e+02
2.000000000000000000e+02,5.747644000000000233e+02
2.010000000000000000e+02,5.753861699999999928e+02
2.020000000000000000e+02,5.759522100000000364e+02
2.030000000000000000e+02,5.765738499999999931e+02
2.040000000000000000e+02,5.771401399999999740e+02
2.050000000000000000e+02,5.777467000000000326e+02
2.060000000000000000e+02,5.783181799999999839e+02
2.070000000000000000e+02,5.789130900000000111e+02
2.080000000000000000e+02,5.794835799999999608e+02
2.090000000000000000e+02,5.800676300000000083e+02
2.100000000000000000e+02,5.806298199999999952e+02
2.110000000000000000e+02,5.811997099999999818e+02
2.120000000000000000e+02,5.817595800000000281e+02
2.130000000000000000e+02,5.823181799999999839e+02
2.140000000000000000e+02,5.828681599999999889e+02
2.150000000000000000e+02,5.834233400000000529e+02
2.160000000000000000e+02,5.839592900000000100e+02
2.170000000000000000e+02,5.845089699999999766e+02
2.180000000000000000e+02,5.850362499999999955e+02
2.190000000000000000e+02,5.855750100000000202e+02
2.200000000000000000e+02,5.860951499999999896e+02
2.210000000000000000e+02,5.866259800000000268e+02
2.220000000000000000e+02,5.871359899999999925e+02
2.230000000000000000e+02,5.876625999999999976e+02
2.240000000000000000e+02,5.881699200000000474e+02
2.250000000000000000e+02,5.886788299999999481e+02
2.260000000000000000e+02,5.891788299999999481e+02
2.270000000000000000e+02,5.896852400000000216e+02
2.280000000000000000e+02,5.901707199999999602e+02
2.290000000000000000e+02,5.906762700000000450e+02
2.300000000000000000e+02,5.911572300000000268e+02
2.310000000000000000e+02,5.916550300000000107e+02
2.320000000000000000e+02,5.921248799999999619e+02
2.330000000000000000e+02,5.926157200000000103e+02
2.340000000000000000e+02,5.930846599999999853e+02
2.350000000000000000e+02,5.935684199999999464e+02
2.360000000000000000e+02,5.940291700000000219e+02
2.370000000000000000e+02,5.945079299999999876e+02
2.380000000000000000e+02,5.949616099999999506e+02
2.390000000000000000e+02,5.954224199999999882e+02
2.400000000000000000e+02,5.958047500000000127e+02
2.410000000000000000e+02,5.962211300000000165e+02
2.420000000000000000e+02,5.966177999999999884e+02
2.430000000000000000e+02,5.970488299999999526e+02
2.440000000000000000e+02,5.974514799999999468e+02
2.450000000000000000e+02,5.978850099999999657e+02
2.460000000000000000e+02,5.982967499999999745e+02
2.470000000000000000e+02,5.987349900000000389e+02
2.480000000000000000e+02,5.991546600000000353e+02
2.490000000000000000e+02,5.995930799999999863e+02
2.500000000000000000e+02,6.000160499999999502e+02
2.510000000000000000e+02,6.004512300000000096e+02
2.520000000000000000e+02,6.008820799999999736e+02
2.530000000000000000e+02,6.013209799999999632e+02
2.540000000000000000e+02,6.017510399999999890e+02
2.550000000000000000e+02,6.021893900000000031e+02
2.560000000000000000e+02,6.026175500000000511e+02
2.570000000000000000e+02,6.030589599999999564e+02
2.580000000000000000e+02,6.034872400000000425e+02
2.590000000000000000e+02,6.039306599999999889e+02
2.600000000000000000e+02,6.043576699999999846e+02
2.610000000000000000e+02,6.048019399999999450e+02
2.620000000000000000e+02,6.052281500000000278e+02
2.630000000000000000e+02,6.056769399999999450e+02
2.640000000000000000e+02,6.061055900000000065e+02
2.650000000000000000e+02,6.065571899999999914e+02
2.660000000000000000e+02,6.069835199999999986e+02
2.670000000000000000e+02,6.074401199999999790e+02
2.680000000000000000e+02,6.078704800000000432e+02
2.690000000000000000e+02,6.083263500000000477e+02
2.700000000000000000e+02,6.087631199999999581e+02
2.710000000000000000e+02,6.092192999999999756e+02
2.720000000000000000e+02,6.096654700000000275e+02
2.730000000000000000e+02,6.101303699999999708e+02
2.740000000000000000e+02,6.105769000000000233e+02
2.750000000000000000e+02,6.110528000000000475e+02
2.760000000000000000e+02,6.115056799999999839e+02
2.770000000000000000e+02,6.119903000000000475e+02
2.780000000000000000e+02,6.124510500000000093e+02
2.790000000000000000e+02,6.129476300000000037e+02
2.800000000000000000e+02,6.134201699999999846e+02
2.810000000000000000e+02,6.139290799999999990e+02
2.820000000000000000e+02,6.144115000000000464e+02
2.830000000000000000e+02,6.149378699999999753e+02
2.840000000000000000e+02,6.154345700000000079e+02
2.850000000000000000e+02,6.159790600000000040e+02
2.860000000000000000e+02,6.164888899999999694e+02
2.870000000000000000e+02,6.170609100000000353e+02
2.880000000000000000e+02,6.175895400000000564e+02
2.890000000000000000e+02,6.181797500000000127e+02
2.900000000000000000e+02,6.187399900000000343e+02
2.910000000000000000e+02,6.193564499999999953e+02
2.920000000000000000e+02,6.199445799999999736e+02
2.930000000000000000e+02,6.205924700000000485e+02
2.940000000000000000e+02,6.212127100000000155e+02
2.950000000000000000e+02,6.218928799999999910e+02
2.960000000000000000e+02,6.225515699999999697e+02
2.970000000000000000e+02,6.232766699999999673e+02
2.980000000000000000e+02,6.239677100000000110e+02
2.990000000000000000e+02,6.247364499999999907e+02
3.000000000000000000e+02,6.254718599999999924e+02
3.010000000000000000e+02,6.262889999999999873e+02
3.020000000000000000e+02,6.270641500000000406e+02
3.030000000000000000e+02,6.279299899999999752e+02
3.040000000000000000e+02,6.287439000000000533e+02
3.050000000000000000e+02,6.296576499999999896e+02
3.060000000000000000e+02,6.305087300000000141e+02
3.070000000000000000e+02,6.314611800000000130e+02
3.080000000000000000e+02,6.323418599999999969e+02
3.090000000000000000e+02,6.333331299999999828e+02
3.100000000000000000e+02,6.342338899999999740e+02
3.110000000000000000e+02,6.352508500000000140e+02
3.120000000000000000e+02,6.361636999999999489e+02
3.130000000000000000e+02,6.371962899999999763e+02
3.140000000000000000e+02,6.381141400000000203e+02
3.150000000000000000e+02,6.391560699999999997e+02
3.160000000000000000e+02,6.400563399999999774e+02
3.170000000000000000e+02,6.411094399999999496e+02
3.180000000000000000e+02,6.419854100000000017e+02
3.190000000000000000e+02,6.430381499999999733e+02
3.200000000000000000e+02,6.438876299999999446e+02
3.210000000000000000e+02,6.449342699999999695e+02
3.220000000000000000e+02,6.457434700000000021e+02
3.230000000000000000e+02,6.467899200000000519e+02
3.240000000000000000e+02,6.475537699999999859e+02
3.250000000000000000e+02,6.485918000000000347e+02
3.260000000000000000e+02,6.493062099999999646e+02
3.270000000000000000e+02,6.503444200000000137e+02
3.280000000000000000e+02,6.509973800000000210e+02
3.290000000000000000e+02,6.520422399999999925e+02
3.300000000000000000e+02,6.526254300000000512e+02
3.310000000000000000e+02,6.536838400000000320e+02
3.320000000000000000e+02,6.541881700000000137e+02
3.330000000000000000e+02,6.552708099999999831e+02
3.340000000000000000e+02,6.556823100000000295e+02
3.350000000000000000e+02,6.568054799999999886e+02
3.360000000000000000e+02,6.571133999999999560e+02
3.370000000000000000e+02,6.582825900000000274e+02
3.380000000000000000e+02,6.584747899999999845e+02
3.390000000000000000e+02,6.597182000000000244e+02
3.400000000000000000e+02,6.597633700000000090e+02
3.410000000000000000e+02,6.611137099999999691e+02
3.420000000000000000e+02,6.609810199999999440e+02
3.430000000000000000e+02,6.624648399999999810e+02
3.440000000000000000e+02,6.621245699999999488e+02
3.450000000000000000e+02,6.637916300000000547e+02
3.460000000000000000e+02,6.631863399999999729e+02
3.470000000000000000e+02,6.650941199999999753e+02
3.480000000000000000e+02,6.641677899999999681e+02
3.490000000000000000e+02,6.663816500000000360e+02
3.500000000000000000e+02,6.650548099999999749e+02
3.510000000000000000e+02,6.676778600000000097e+02
3.520000000000000000e+02,6.658339200000000346e+02
3.530000000000000000e+02,6.689913900000000240e+02
3.540000000000000000e+02,6.664996300000000247e+02
3.550000000000000000e+02,6.703384399999999914e+02
3.560000000000000000e+02,6.670297199999999975e+02
3.570000000000000000e+02,6.717559800000000223e+02
3.580000000000000000e+02,6.673919100000000526e+02
3.590000000000000000e+02,6.732717900000000100e+02
3.600000000000000000e+02,6.675573699999999917e+02
3.610000000000000000e+02,6.749308499999999640e+02
3.620000000000000000e+02,6.674823000000000093e+02
3.630000000000000000e+02,6.767952900000000227e+02
3.640000000000000000e+02,6.670938700000000381e+02
3.650000000000000000e+02,6.789463500000000522e+02
3.660000000000000000e+02,6.663226300000000037e+02
3.670000000000000000e+02,6.814792499999999791e+02
3.680000000000000000e+02,6.650602999999999838e+02
3.690000000000000000e+02,6.845413200000000415e+02
3.700000000000000000e+02,6.631630199999999604e+02
3.710000000000000000e+02,6.883091399999999567e+02
3.720000000000000000e+02,6.604564199999999801e+02
3.730000000000000000e+02,6.930463300000000118e+02
3.740000000000000000e+02,6.566937900000000354e+02
3.750000000000000000e+02,6.991090100000000120e+02
3.760000000000000000e+02,6.515524900000000343e+02
3.770000000000000000e+02,7.069929799999999886e+02
3.780000000000000000e+02,6.446126699999999801e+02
3.790000000000000000e+02,7.174273699999999963e+02
3.800000000000000000e+02,6.353092000000000326e+02
3.810000000000000000e+02,7.315250200000000405e+02
3.820000000000000000e+02,6.228159200000000055e+02
3.830000000000000000e+02,7.072680100000000039e+02
3.840000000000000000e+02,6.634006299999999783e+02
3.850000000000000000e+02,7.005638999999999896e+02
3.860000000000000000e+02,6.632780800000000454e+02
3.870000000000000000e+02,7.010463899999999740e+02
3.880000000000000000e+02,6.609807100000000446e+02
3.890000000000000000e+02,7.039005100000000539e+02
3.900000000000000000e+02,6.573632199999999557e+02
3.910000000000000000e+02,7.085090300000000525e+02
3.920000000000000000e+02,6.523229400000000169e+02
3.930000000000000000e+02,7.149864499999999907e+02
3.940000000000000000e+02,6.455140999999999849e+02
3.950000000000000000e+02,7.237646499999999605e+02
3.960000000000000000e+02,6.364232799999999770e+02
3.970000000000000000e+02,7.355806900000000041e+02
3.980000000000000000e+02,6.243064600000000155e+02
3.990000000000000000e+02,7.516116299999999910e+02
4.000000000000000000e+02,6.080950900000000274e+02
4.010000000000000000e+02,7.737528099999999540e+02
4.020000000000000000e+02,6.450120799999999690e+02
4.030000000000000000e+02,7.120179399999999532e+02
4.040000000000000000e+02,6.557677599999999529e+02
4.050000000000000000e+02,7.120230099999999993e+02
4.060000000000000000e+02,6.545769000000000233e+02
4.070000000000000000e+02,7.157792399999999589e+02
4.080000000000000000e+02,6.502156999999999698e+02
4.090000000000000000e+02,7.218836099999999760e+02
4.100000000000000000e+02,6.434934700000000021e+02
4.110000000000000000e+02,7.304714999999999918e+02
4.120000000000000000e+02,6.341815199999999777e+02
4.130000000000000000e+02,7.421402600000000120e+02
4.140000000000000000e+02,6.216188399999999774e+02
4.150000000000000000e+02,7.579750999999999976e+02
4.160000000000000000e+02,6.047667199999999639e+02
4.170000000000000000e+02,7.796913500000000568e+02
4.180000000000000000e+02,6.426956199999999626e+02
4.190000000000000000e+02,7.161566800000000512e+02
4.200000000000000000e+02,6.544964599999999564e+02
4.210000000000000000e+02,7.162622699999999440e+02
4.220000000000000000e+02,6.532724600000000237e+02
4.230000000000000000e+02,7.203452099999999518e+02
4.240000000000000000e+02,6.485342399999999543e+02
4.250000000000000000e+02,7.269125999999999976e+02
4.260000000000000000e+02,6.412000100000000202e+02
4.270000000000000000e+02,7.361290299999999434e+02
4.280000000000000000e+02,6.310302699999999732e+02
4.290000000000000000e+02,7.486465500000000475e+02
4.300000000000000000e+02,6.173027299999999968e+02
4.310000000000000000e+02,7.656109599999999773e+02
4.320000000000000000e+02,6.496942099999999982e+02
4.330000000000000000e+02,7.128222700000000032e+02
4.340000000000000000e+02,6.595236800000000130e+02
4.350000000000000000e+02,7.130013400000000274e+02
4.360000000000000000e+02,6.585659799999999677e+02
4.370000000000000000e+02,7.164680200000000241e+02
4.380000000000000000e+02,6.546077299999999468e+02
4.390000000000000000e+02,7.219931599999999889e+02
4.400000000000000000e+02,6.484412200000000439e+02
4.410000000000000000e+02,7.296909799999999677e+02
4.420000000000000000e+02,6.398956299999999828e+02
4.430000000000000000e+02,7.400715900000000147e+02
4.440000000000000000e+02,6.283890400000000227e+02
4.450000000000000000e+02,7.540170900000000529e+02
4.460000000000000000e+02,6.130424799999999550e+02
4.470000000000000000e+02,7.728689000000000533e+02
4.480000000000000000e+02,6.473919100000000526e+02
4.490000000000000000e+02,7.159001500000000533e+02
4.500000000000000000e+02,6.579816899999999578e+02
4.510000000000000000e+02,7.161348299999999654e+02
4.520000000000000000e+02,6.567543899999999439e+02
4.530000000000000000e+02,7.200017699999999650e+02
4.540000000000000000e+02,6.522271100000000388e+02
4.550000000000000000e+02,7.261596700000000055e+02
4.560000000000000000e+02,6.452506700000000137e+02
4.570000000000000000e+02,7.347572599999999738e+02
4.580000000000000000e+02,6.356059000000000196e+02
4.590000000000000000e+02,7.464083900000000540e+02
4.600000000000000000e+02,6.226337899999999763e+02
4.610000000000000000e+02,7.621002200000000357e+02
4.620000000000000000e+02,6.052689199999999801e+02
4.630000000000000000e+02,7.259453099999999495e+02
4.640000000000000000e+02,6.603497300000000223e+02
4.650000000000000000e+02,7.197531099999999924e+02
4.660000000000000000e+02,6.589177200000000312e+02
4.670000000000000000e+02,7.217811900000000378e+02
4.680000000000000000e+02,6.542829600000000028e+02
4.690000000000000000e+02,7.269320099999999911e+02
4.700000000000000000e+02,6.474257800000000316e+02
4.710000000000000000e+02,7.347048300000000154e+02
4.720000000000000000e+02,6.380906999999999698e+02
4.730000000000000000e+02,7.454800400000000309e+02
4.740000000000000000e+02,6.256312299999999595e+02
4.750000000000000000e+02,7.601468499999999722e+02
4.760000000000000000e+02,6.090518799999999828e+02
4.770000000000000000e+02,7.801189600000000155e+02
4.780000000000000000e+02,6.451831100000000561e+02
4.790000000000000000e+02,7.196094399999999496e+02
4.800000000000000000e+02,6.565629300000000512e+02
4.810000000000000000e+02,7.198861100000000306e+02
4.820000000000000000e+02,6.550967399999999543e+02
4.830000000000000000e+02,7.241068699999999581e+02
4.840000000000000000e+02,6.500283799999999701e+02
4.850000000000000000e+02,7.308406999999999698e+02
4.860000000000000000e+02,6.422661699999999882e+02
4.870000000000000000e+02,7.402719100000000481e+02
4.880000000000000000e+02,6.315464500000000498e+02
4.890000000000000000e+02,7.531051599999999553e+02
4.900000000000000000e+02,6.171132199999999557e+02
4.910000000000000000e+02,7.704789399999999659e+02
4.920000000000000000e+02,6.499034400000000460e+02
4.930000000000000000e+02,7.165526700000000346e+02
4.940000000000000000e+02,6.599397000000000162e+02
4.950000000000000000e+02,7.168538800000000037e+02
4.960000000000000000e+02,6.586742600000000039e+02
4.970000000000000000e+02,7.206192600000000539e+02
4.980000000000000000e+02,6.541967799999999897e+02
4.990000000000000000e+02,7.265996699999999464e+02
5.000000000000000000e+02,6.473207400000000007e+02
5.010000000000000000e+02,7.349533099999999877e+02
5.020000000000000000e+02,6.378235499999999547e+02
5.030000000000000000e+02,7.462568999999999733e+02
5.040000000000000000e+02,6.250565800000000536e+02
5.050000000000000000e+02,7.614972500000000082e+02
5.060000000000000000e+02,6.080137899999999718e+02
5.070000000000000000e+02,7.822202800000000025e+02
5.080000000000000000e+02,6.446698599999999715e+02
5.090000000000000000e+02,7.205583500000000186e+02
5.100000000000000000e+02,6.562926599999999553e+02
5.110000000000000000e+02,7.209280400000000100e+02
5.120000000000000000e+02,6.547338300000000118e+02
5.130000000000000000e+02,7.253308700000000044e+02
5.140000000000000000e+02,6.494583099999999831e+02
5.150000000000000000e+02,7.323226899999999659e+02
5.160000000000000000e+02,6.413822599999999738e+02
5.170000000000000000e+02,7.421171299999999746e+02
5.180000000000000000e+02,6.302406600000000481e+02
5.190000000000000000e+02,7.554549600000000282e+02
5.200000000000000000e+02,6.152162499999999454e+02
5.210000000000000000e+02,7.735681799999999839e+02
5.220000000000000000e+02,6.489014300000000048e+02
5.230000000000000000e+02,7.179277299999999968e+02
5.240000000000000000e+02,6.593162200000000439e+02
5.250000000000000000e+02,7.182940700000000334e+02
5.260000000000000000e+02,6.579734499999999571e+02
5.270000000000000000e+02,7.222501800000000003e+02
5.280000000000000000e+02,6.532740499999999884e+02
5.290000000000000000e+02,7.285240499999999884e+02
5.300000000000000000e+02,6.460496799999999666e+02
5.310000000000000000e+02,7.372908300000000281e+02
5.320000000000000000e+02,6.360633500000000140e+02
5.330000000000000000e+02,7.491684000000000196e+02
5.340000000000000000e+02,6.226356200000000172e+02
5.350000000000000000e+02,7.652405999999999722e+02
5.360000000000000000e+02,6.046585700000000543e+02
5.370000000000000000e+02,7.284451299999999492e+02
5.380000000000000000e+02,6.608175700000000461e+02
5.390000000000000000e+02,7.223626100000000179e+02
5.400000000000000000e+02,6.591946400000000494e+02
5.410000000000000000e+02,7.246877399999999625e+02
5.420000000000000000e+02,6.542107499999999618e+02
5.430000000000000000e+02,7.302340100000000120e+02
5.440000000000000000e+02,6.468402099999999564e+02
5.450000000000000000e+02,7.385397900000000391e+02
5.460000000000000000e+02,6.367936399999999821e+02
5.470000000000000000e+02,7.500928999999999860e+02
5.480000000000000000e+02,6.233736599999999726e+02
5.490000000000000000e+02,7.658482099999999946e+02
5.500000000000000000e+02,6.054705199999999650e+02
5.510000000000000000e+02,7.291108400000000529e+02
5.520000000000000000e+02,6.613725600000000213e+02
5.530000000000000000e+02,7.231270100000000411e+02
5.540000000000000000e+02,6.597241800000000467e+02
5.550000000000000000e+02,7.255266100000000051e+02
5.560000000000000000e+02,6.546790799999999990e+02
5.570000000000000000e+02,7.311344000000000278e+02
5.580000000000000000e+02,6.472151499999999942e+02
5.590000000000000000e+02,7.395235000000000127e+02
5.600000000000000000e+02,6.370528600000000097e+02
5.610000000000000000e+02,7.511916499999999814e+02
5.620000000000000000e+02,6.234540399999999636e+02
5.630000000000000000e+02,7.671273200000000543e+02
5.640000000000000000e+02,6.052954099999999471e+02
5.650000000000000000e+02,7.301942699999999604e+02
5.660000000000000000e+02,6.616378200000000334e+02
5.670000000000000000e+02,7.243051100000000133e+02
5.680000000000000000e+02,6.599360400000000482e+02
5.690000000000000000e+02,7.268470499999999674e+02
5.700000000000000000e+02,6.547456100000000561e+02
5.710000000000000000e+02,7.326464200000000346e+02
5.720000000000000000e+02,6.470545700000000124e+02
5.730000000000000000e+02,7.413031600000000481e+02
5.740000000000000000e+02,6.365491299999999910e+02
5.750000000000000000e+02,7.533222700000000032e+02
5.760000000000000000e+02,6.224831500000000233e+02
5.770000000000000000e+02,7.697880199999999604e+02
5.780000000000000000e+02,6.036917700000000195e+02
5.790000000000000000e+02,7.320624400000000378e+02
5.800000000000000000e+02,6.614580099999999447e+02
5.810000000000000000e+02,7.262300400000000309e+02
5.820000000000000000e+02,6.596611299999999574e+02
5.830000000000000000e+02,7.290614000000000487e+02
5.840000000000000000e+02,6.542086199999999963e+02
5.850000000000000000e+02,7.352488399999999729e+02
5.860000000000000000e+02,6.460916700000000219e+02
5.870000000000000000e+02,7.444258399999999938e+02
5.880000000000000000e+02,6.349605699999999615e+02
5.890000000000000000e+02,7.571979999999999791e+02
5.900000000000000000e+02,6.200319799999999759e+02
5.910000000000000000e+02,7.747752100000000155e+02
5.920000000000000000e+02,6.523603500000000395e+02
5.930000000000000000e+02,7.212974199999999882e+02
5.940000000000000000e+02,6.624260299999999688e+02
5.950000000000000000e+02,7.221480099999999993e+02
5.960000000000000000e+02,6.609414699999999812e+02
5.970000000000000000e+02,7.265132399999999961e+02
5.980000000000000000e+02,6.558843399999999519e+02
5.990000000000000000e+02,7.332343799999999874e+02