# Time [s], Temperature [C]
1.000000000000000000e+00,2.500000000000000000e+01
2.000000000000000000e+00,2.500000000000000000e+01
3.000000000000000000e+00,2.500000000000000000e+01
4.000000000000000000e+00,2.500000000000000000e+01
5.000000000000000000e+00,2.500000800000000112e+01
6.000000000000000000e+00,2.500004399999999904e+01
7.000000000000000000e+00,2.500019500000000150e+01
8.000000000000000000e+00,2.500070600000000098e+01
9.000000000000000000e+00,2.500213600000000014e+01
1.000000000000000000e+01,2.500558900000000051e+01
1.100000000000000000e+01,2.501293400000000133e+01
1.200000000000000000e+01,2.502700000000000102e+01
1.300000000000000000e+01,2.505165699999999873e+01
1.400000000000000000e+01,2.509177999999999997e+01
1.500000000000000000e+01,2.515821599999999947e+01
1.600000000000000000e+01,2.525201399999999907e+01
1.700000000000000000e+01,2.538106300000000104e+01
1.800000000000000000e+01,2.555252499999999927e+01
1.900000000000000000e+01,2.577322200000000052e+01
2.000000000000000000e+01,2.604972300000000018e+01
2.100000000000000000e+01,2.638816100000000020e+01
2.200000000000000000e+01,2.679412299999999902e+01
2.300000000000000000e+01,2.727258499999999941e+01
2.400000000000000000e+01,2.782787899999999937e+01
2.500000000000000000e+01,2.846362500000000040e+01
2.600000000000000000e+01,2.918268600000000035e+01
2.700000000000000000e+01,2.998723599999999934e+01
2.800000000000000000e+01,3.087874199999999902e+01
2.900000000000000000e+01,3.185805699999999874e+01
3.000000000000000000e+01,3.292538499999999857e+01
3.100000000000000000e+01,3.408053999999999917e+01
3.200000000000000000e+01,3.532282599999999917e+01
3.300000000000000000e+01,3.665119599999999878e+01
3.400000000000000000e+01,3.806439600000000212e+01
3.500000000000000000e+01,3.956084400000000301e+01
3.600000000000000000e+01,4.113876700000000142e+01
3.700000000000000000e+01,4.279623399999999833e+01
3.800000000000000000e+01,4.453116599999999892e+01
3.900000000000000000e+01,4.634137700000000137e+01
4.000000000000000000e+01,4.822446800000000167e+01
4.100000000000000000e+01,5.017814299999999861e+01
4.200000000000000000e+01,5.219999700000000331e+01
4.300000000000000000e+01,5.428771199999999908e+01
4.400000000000000000e+01,5.643877400000000222e+01
4.500000000000000000e+01,5.865079099999999812e+01
4.600000000000000000e+01,6.092152800000000212e+01
4.700000000000000000e+01,6.324865299999999735e+01
4.800000000000000000e+01,6.562989000000000317e+01
4.900000000000000000e+01,6.806288899999999842e+01
5.000000000000000000e+01,7.054535699999999565e+01
5.100000000000000000e+01,7.307521099999999592e+01
5.200000000000000000e+01,7.565016900000000533e+01
5.300000000000000000e+01,7.826811200000000213e+01
5.400000000000000000e+01,8.092709399999999675e+01
5.500000000000000000e+01,8.362510699999999986e+01
5.600000000000000000e+01,8.636022900000000391e+01
5.700000000000000000e+01,8.913060000000000116e+01
5.800000000000000000e+01,9.193440200000000573e+01
5.900000000000000000e+01,9.476985200000000020e+01
6.000000000000000000e+01,9.763518500000000699e+01
6.100000000000000000e+01,1.005286600000000021e+02
6.200000000000000000e+01,1.034486700000000070e+02
6.300000000000000000e+01,1.063936800000000034e+02
6.400000000000000000e+01,1.093619800000000026e+02
6.500000000000000000e+01,1.123521800000000042e+02
6.600000000000000000e+01,1.153627500000000055e+02
6.700000000000000000e+01,1.183935299999999984e+02
6.800000000000000000e+01,1.214415099999999939e+02
6.900000000000000000e+01,1.245059700000000049e+02
7.000000000000000000e+01,1.275856500000000011e+02
7.100000000000000000e+01,1.306792900000000088e+02
7.200000000000000000e+01,1.337860000000000014e+02
7.300000000000000000e+01,1.369048799999999915e+02
7.400000000000000000e+01,1.400349899999999934e+02
7.500000000000000000e+01,1.431753999999999962e+02
7.600000000000000000e+01,1.463253300000000081e+02
7.700000000000000000e+01,1.494838599999999929e+02
7.800000000000000000e+01,1.526502800000000093e+02
7.900000000000000000e+01,1.558237200000000087e+02
8.000000000000000000e+01,1.590032799999999895e+02
8.100000000000000000e+01,1.621881999999999948e+02
8.200000000000000000e+01,1.653775799999999947e+02
8.300000000000000000e+01,1.685705000000000098e+02
8.400000000000000000e+01,1.717660099999999943e+02
8.500000000000000000e+01,1.749632300000000100e+02
8.600000000000000000e+01,1.781612900000000081e+02
8.700000000000000000e+01,1.813593600000000094e+02
8.800000000000000000e+01,1.845566300000000126e+02
8.900000000000000000e+01,1.877523199999999974e+02
9.000000000000000000e+01,1.909456900000000132e+02
9.100000000000000000e+01,1.941360500000000116e+02
9.200000000000000000e+01,1.973227200000000039e+02
9.300000000000000000e+01,2.005049699999999859e+02
9.400000000000000000e+01,2.036821099999999944e+02
9.500000000000000000e+01,2.068534999999999968e+02
9.600000000000000000e+01,2.100184199999999919e+02
9.700000000000000000e+01,2.131760999999999910e+02
9.800000000000000000e+01,2.163257800000000088e+02
9.900000000000000000e+01,2.194669600000000003e+02
1.000000000000000000e+02,2.225989500000000021e+02
1.010000000000000000e+02,2.257211200000000133e+02
1.020000000000000000e+02,2.288327500000000043e+02
1.030000000000000000e+02,2.319331999999999994e+02
1.040000000000000000e+02,2.350220899999999915e+02
1.050000000000000000e+02,2.380987100000000112e+02
1.060000000000000000e+02,2.411623800000000131e+02
1.070000000000000000e+02,2.442126299999999901e+02
1.080000000000000000e+02,2.472487299999999948e+02
1.090000000000000000e+02,2.502699100000000101e+02
1.100000000000000000e+02,2.532756300000000067e+02
1.110000000000000000e+02,2.562650499999999738e+02
1.120000000000000000e+02,2.592374899999999798e+02
1.130000000000000000e+02,2.621921699999999760e+02
1.140000000000000000e+02,2.651284200000000055e+02
1.150000000000000000e+02,2.680455299999999852e+02
1.160000000000000000e+02,2.709425699999999892e+02
1.170000000000000000e+02,2.738188499999999976e+02
1.180000000000000000e+02,2.766734900000000152e+02
1.190000000000000000e+02,2.795055199999999900e+02
1.200000000000000000e+02,2.823140000000000214e+02
1.210000000000000000e+02,2.850978099999999813e+02
1.220000000000000000e+02,2.878557700000000068e+02
1.230000000000000000e+02,2.905867000000000075e+02
1.240000000000000000e+02,2.932904100000000085e+02
1.250000000000000000e+02,2.959649999999999750e+02
1.260000000000000000e+02,2.986108399999999961e+02
1.270000000000000000e+02,3.012276899999999955e+02
1.280000000000000000e+02,3.038138999999999896e+02
1.290000000000000000e+02,3.063666099999999801e+02
1.300000000000000000e+02,3.088822599999999738e+02
1.310000000000000000e+02,3.113579700000000230e+02
1.320000000000000000e+02,3.137914400000000228e+02
1.330000000000000000e+02,3.161807299999999827e+02
1.340000000000000000e+02,3.185238600000000133e+02
1.350000000000000000e+02,3.208190000000000168e+02
1.360000000000000000e+02,3.230643000000000029e+02
1.370000000000000000e+02,3.252576900000000251e+02
1.380000000000000000e+02,3.273974900000000048e+02
1.390000000000000000e+02,3.294818399999999770e+02
1.400000000000000000e+02,3.315092500000000086e+02
1.410000000000000000e+02,3.334782400000000280e+02
1.420000000000000000e+02,3.353876999999999953e+02
1.430000000000000000e+02,3.372366900000000101e+02
1.440000000000000000e+02,3.390245699999999829e+02
1.450000000000000000e+02,3.407512800000000084e+02
1.460000000000000000e+02,3.424170500000000175e+02
1.470000000000000000e+02,3.440226400000000240e+02
1.480000000000000000e+02,3.455692399999999793e+02
1.490000000000000000e+02,3.470584999999999809e+02
1.500000000000000000e+02,3.484923099999999749e+02
1.510000000000000000e+02,3.498732299999999782e+02
1.520000000000000000e+02,3.512040999999999826e+02
1.530000000000000000e+02,3.524880699999999933e+02
1.540000000000000000e+02,3.537284500000000094e+02
1.550000000000000000e+02,3.549288599999999860e+02
1.560000000000000000e+02,3.560931100000000242e+02
1.570000000000000000e+02,3.572251600000000167e+02
1.580000000000000000e+02,3.583289800000000014e+02
1.590000000000000000e+02,3.594086599999999976e+02
1.600000000000000000e+02,3.604682599999999866e+02
1.610000000000000000e+02,3.615115700000000061e+02
1.620000000000000000e+02,3.625426899999999932e+02
1.630000000000000000e+02,3.636865199999999732e+02
1.640000000000000000e+02,3.647789900000000216e+02
1.650000000000000000e+02,3.658462200000000166e+02
1.660000000000000000e+02,3.668916899999999828e+02
1.670000000000000000e+02,3.679225799999999822e+02
1.680000000000000000e+02,3.689531900000000064e+02
1.690000000000000000e+02,3.699939899999999966e+02
1.700000000000000000e+02,3.710508100000000127e+02
1.710000000000000000e+02,3.721273499999999785e+02
1.720000000000000000e+02,3.732261399999999867e+02
1.730000000000000000e+02,3.743499100000000226e+02
1.740000000000000000e+02,3.755007299999999759e+02
1.750000000000000000e+02,3.766808800000000019e+02
1.760000000000000000e+02,3.778924000000000092e+02
1.770000000000000000e+02,3.791377899999999954e+02
1.780000000000000000e+02,3.804200399999999718e+02
1.790000000000000000e+02,3.817420999999999935e+02
1.800000000000000000e+02,3.831067199999999957e+02
1.810000000000000000e+02,3.845178799999999910e+02
1.820000000000000000e+02,3.859792499999999791e+02
1.830000000000000000e+02,3.874953600000000051e+02
1.840000000000000000e+02,3.890708300000000008e+02
1.850000000000000000e+02,3.907106299999999806e+02
1.860000000000000000e+02,3.924208100000000172e+02
1.870000000000000000e+02,3.942085000000000150e+02
1.880000000000000000e+02,3.960808099999999854e+02
1.890000000000000000e+02,3.980454700000000230e+02
1.900000000000000000e+02,4.001120000000000232e+02
1.910000000000000000e+02,4.022907999999999902e+02
1.920000000000000000e+02,4.045940200000000004e+02
1.930000000000000000e+02,4.070346700000000055e+02
1.940000000000000000e+02,4.096289699999999812e+02
1.950000000000000000e+02,4.123916600000000017e+02
1.960000000000000000e+02,4.153439000000000192e+02
1.970000000000000000e+02,4.185051300000000083e+02
1.980000000000000000e+02,4.218996300000000019e+02
1.990000000000000000e+02,4.255511500000000069e+02
2.000000000000000000e+02,4.294832200000000171e+02
2.010000000000000000e+02,4.337188699999999812e+02
2.020000000000000000e+02,4.382753599999999778e+02
2.030000000000000000e+02,4.431603999999999814e+02
2.040000000000000000e+02,4.483628499999999804e+02
2.050000000000000000e+02,4.538458600000000160e+02
2.060000000000000000e+02,4.595408600000000092e+02
2.070000000000000000e+02,4.653484500000000139e+02
2.080000000000000000e+02,4.711497200000000021e+02
2.090000000000000000e+02,4.768357799999999997e+02
2.100000000000000000e+02,4.823313299999999799e+02
2.110000000000000000e+02,4.876061399999999821e+02
2.120000000000000000e+02,4.926634199999999737e+02
2.130000000000000000e+02,4.975224900000000048e+02
2.140000000000000000e+02,5.022072400000000130e+02
2.150000000000000000e+02,5.067387100000000260e+02
2.160000000000000000e+02,5.111347700000000032e+02
2.170000000000000000e+02,5.154096700000000055e+02
2.180000000000000000e+02,5.195749499999999443e+02
2.190000000000000000e+02,5.236406200000000126e+02
2.200000000000000000e+02,5.276140100000000075e+02
2.210000000000000000e+02,5.315016500000000406e+02
2.220000000000000000e+02,5.353098099999999704e+02
2.230000000000000000e+02,5.390429100000000062e+02
2.240000000000000000e+02,5.427055699999999661e+02
2.250000000000000000e+02,5.463010900000000447e+02
2.260000000000000000e+02,5.498334399999999960e+02
2.270000000000000000e+02,5.533056599999999889e+02
2.280000000000000000e+02,5.567202800000000025e+02
2.290000000000000000e+02,5.600792800000000398e+02
2.300000000000000000e+02,5.633859300000000303e+02
2.310000000000000000e+02,5.666416600000000017e+02
2.320000000000000000e+02,5.698482099999999946e+02
2.330000000000000000e+02,5.730075699999999870e+02
2.340000000000000000e+02,5.761213999999999942e+02
2.350000000000000000e+02,5.791910400000000436e+02
2.360000000000000000e+02,5.822181399999999485e+02
2.370000000000000000e+02,5.852034300000000258e+02
2.380000000000000000e+02,5.881486800000000130e+02
2.390000000000000000e+02,5.910548099999999749e+02
2.400000000000000000e+02,5.939225500000000011e+02
2.410000000000000000e+02,5.967532999999999674e+02
2.420000000000000000e+02,5.995474900000000389e+02
2.430000000000000000e+02,6.023062099999999646e+02
2.440000000000000000e+02,6.050303300000000490e+02
2.450000000000000000e+02,6.077205199999999650e+02
2.460000000000000000e+02,6.103778700000000299e+02
2.470000000000000000e+02,6.130022599999999784e+02
2.480000000000000000e+02,6.155949100000000271e+02
2.490000000000000000e+02,6.181563700000000381e+02
2.500000000000000000e+02,6.206872600000000375e+02
2.510000000000000000e+02,6.231876200000000381e+02
2.520000000000000000e+02,6.256585700000000543e+02
2.530000000000000000e+02,6.281005199999999604e+02
2.540000000000000000e+02,6.305137300000000096e+02
2.550000000000000000e+02,6.328988000000000511e+02
2.560000000000000000e+02,6.352559800000000223e+02
2.570000000000000000e+02,6.375859400000000505e+02
2.580000000000000000e+02,6.398889799999999468e+02
2.590000000000000000e+02,6.421653400000000147e+02
2.600000000000000000e+02,6.444157099999999900e+02
2.610000000000000000e+02,6.466405600000000504e+02
2.620000000000000000e+02,6.488395400000000564e+02
2.630000000000000000e+02,6.510137300000000096e+02
2.640000000000000000e+02,6.531630900000000111e+02
2.650000000000000000e+02,6.552882100000000491e+02
2.660000000000000000e+02,6.573890400000000227e+02
2.670000000000000000e+02,6.594663100000000213e+02
2.680000000000000000e+02,6.615199599999999691e+02
2.690000000000000000e+02,6.635505399999999554e+02
2.700000000000000000e+02,6.655583500000000186e+02
2.710000000000000000e+02,6.675435199999999440e+02
2.720000000000000000e+02,6.695064099999999598e+02
2.730000000000000000e+02,6.714471999999999525e+02
2.740000000000000000e+02,6.733661499999999478e+02
2.750000000000000000e+02,6.752637899999999718e+02
2.760000000000000000e+02,6.771400099999999611e+02
2.770000000000000000e+02,6.789951200000000426e+02
2.780000000000000000e+02,6.808297099999999773e+02
2.790000000000000000e+02,6.826436200000000554e+02
2.800000000000000000e+02,6.844373199999999997e+02
2.810000000000000000e+02,6.862108799999999746e+02
2.820000000000000000e+02,6.879647800000000188e+02
2.830000000000000000e+02,6.896989700000000312e+02
2.840000000000000000e+02,6.914140599999999495e+02
2.850000000000000000e+02,6.931098600000000260e+02
2.860000000000000000e+02,6.947866199999999708e+02
2.870000000000000000e+02,6.964448200000000497e+02
2.880000000000000000e+02,6.980845900000000483e+02
2.890000000000000000e+02,6.997060500000000047e+02
2.900000000000000000e+02,7.013094499999999698e+02
2.910000000000000000e+02,7.028949599999999691e+02
2.920000000000000000e+02,7.044627699999999777e+02
2.930000000000000000e+02,7.060131800000000339e+02
2.940000000000000000e+02,7.075461999999999989e+02
2.950000000000000000e+02,7.090620699999999488e+02
2.960000000000000000e+02,7.105610400000000482e+02
2.970000000000000000e+02,7.120435800000000199e+02
2.980000000000000000e+02,7.135094000000000278e+02
2.990000000000000000e+02,7.149589200000000346e+02
3.000000000000000000e+02,7.163922700000000532e+02
3.010000000000000000e+02,7.178096299999999701e+02
3.020000000000000000e+02,7.192110599999999749e+02
3.030000000000000000e+02,7.205971700000000055e+02
3.040000000000000000e+02,7.219676500000000487e+02
3.050000000000000000e+02,7.233229400000000169e+02
3.060000000000000000e+02,7.246629599999999982e+02
3.070000000000000000e+02,7.259881599999999935e+02
3.080000000000000000e+02,7.272986499999999523e+02
3.090000000000000000e+02,7.285944200000000137e+02
3.100000000000000000e+02,7.298757900000000518e+02
3.110000000000000000e+02,7.311426999999999907e+02
3.120000000000000000e+02,7.323956299999999828e+02
3.130000000000000000e+02,7.336345800000000281e+02
3.140000000000000000e+02,7.348597999999999502e+02
3.150000000000000000e+02,7.360711700000000519e+02
3.160000000000000000e+02,7.372691700000000310e+02
3.170000000000000000e+02,7.384536699999999882e+02
3.180000000000000000e+02,7.396250000000000000e+02
3.190000000000000000e+02,7.407832600000000411e+02
3.200000000000000000e+02,7.419286499999999478e+02
3.210000000000000000e+02,7.430612200000000485e+02
3.220000000000000000e+02,7.441811500000000024e+02
3.230000000000000000e+02,7.452885700000000497e+02
3.240000000000000000e+02,7.463836099999999760e+02
3.250000000000000000e+02,7.474664299999999457e+02
3.260000000000000000e+02,7.485371099999999842e+02
3.270000000000000000e+02,7.495958900000000540e+02
3.280000000000000000e+02,7.506427599999999529e+02
3.290000000000000000e+02,7.516780400000000100e+02
3.300000000000000000e+02,7.527016599999999471e+02
3.310000000000000000e+02,7.537138700000000426e+02
3.320000000000000000e+02,7.547147800000000188e+02
3.330000000000000000e+02,7.557045299999999770e+02
3.340000000000000000e+02,7.566831100000000561e+02
3.350000000000000000e+02,7.576508199999999533e+02
3.360000000000000000e+02,7.586076699999999846e+02
3.370000000000000000e+02,7.595538299999999481e+02
3.380000000000000000e+02,7.604893799999999828e+02
3.390000000000000000e+02,7.614145499999999629e+02
3.400000000000000000e+02,7.623292800000000398e+02
3.410000000000000000e+02,7.632337599999999611e+02
3.420000000000000000e+02,7.641281699999999546e+02
3.430000000000000000e+02,7.650126299999999446e+02
3.440000000000000000e+02,7.658871500000000196e+02
3.450000000000000000e+02,7.667517699999999650e+02
3.460000000000000000e+02,7.676068099999999959e+02
3.470000000000000000e+02,7.684522100000000364e+02
3.480000000000000000e+02,7.692882100000000491e+02
3.490000000000000000e+02,7.701148100000000341e+02
3.500000000000000000e+02,7.709321899999999914e+02
3.510000000000000000e+02,7.717403600000000097e+02
3.520000000000000000e+02,7.725395499999999629e+02
3.530000000000000000e+02,7.733297099999999773e+02
3.540000000000000000e+02,7.741110800000000154e+02
3.550000000000000000e+02,7.748836700000000519e+02
3.560000000000000000e+02,7.756475799999999481e+02
3.570000000000000000e+02,7.764028899999999567e+02
3.580000000000000000e+02,7.771497799999999643e+02
3.590000000000000000e+02,7.778881800000000339e+02
3.600000000000000000e+02,7.786184100000000399e+02
3.610000000000000000e+02,7.793403899999999567e+02
3.620000000000000000e+02,7.800543199999999615e+02
3.630000000000000000e+02,7.807602500000000418e+02
3.640000000000000000e+02,7.814582500000000209e+02
3.650000000000000000e+02,7.821483799999999746e+02
3.660000000000000000e+02,7.828308100000000422e+02
3.670000000000000000e+02,7.835055499999999711e+02
3.680000000000000000e+02,7.841727300000000014e+02
3.690000000000000000e+02,7.848324599999999691e+02
3.700000000000000000e+02,7.854846800000000258e+02
3.710000000000000000e+02,7.861295800000000327e+02
3.720000000000000000e+02,7.867673999999999523e+02
3.730000000000000000e+02,7.873978899999999612e+02
3.740000000000000000e+02,7.880213599999999587e+02
3.750000000000000000e+02,7.886378200000000334e+02
3.760000000000000000e+02,7.892473099999999704e+02
3.770000000000000000e+02,7.898500400000000354e+02
3.780000000000000000e+02,7.904459200000000010e+02
3.790000000000000000e+02,7.910351600000000190e+02
3.800000000000000000e+02,7.916177400000000262e+02
3.810000000000000000e+02,7.921938499999999976e+02
3.820000000000000000e+02,7.927633700000000090e+02
3.830000000000000000e+02,7.933265999999999849e+02
3.840000000000000000e+02,7.938834200000000010e+02
3.850000000000000000e+02,7.944339599999999564e+02
3.860000000000000000e+02,7.949783899999999903e+02
3.870000000000000000e+02,7.955166000000000395e+02
3.880000000000000000e+02,7.960487699999999904e+02
3.890000000000000000e+02,7.965750100000000202e+02
3.900000000000000000e+02,7.970952800000000025e+02
3.910000000000000000e+02,7.976097399999999880e+02
3.920000000000000000e+02,7.981184100000000399e+02
3.930000000000000000e+02,7.986213400000000320e+02
3.940000000000000000e+02,7.991185299999999643e+02
3.950000000000000000e+02,7.996102300000000014e+02
3.960000000000000000e+02,8.000963699999999790e+02
3.970000000000000000e+02,8.005770300000000361e+02
3.980000000000000000e+02,8.010523699999999963e+02
3.990000000000000000e+02,8.015222199999999475e+02
4.000000000000000000e+02,8.019868199999999661e+02
4.010000000000000000e+02,8.024462300000000141e+02
4.020000000000000000e+02,8.029003900000000158e+02
4.030000000000000000e+02,8.033494899999999461e+02
4.040000000000000000e+02,8.037935199999999440e+02
4.050000000000000000e+02,8.042325399999999718e+02
4.060000000000000000e+02,8.046666300000000547e+02
4.070000000000000000e+02,8.050958299999999781e+02
4.080000000000000000e+02,8.055201399999999694e+02
4.090000000000000000e+02,8.059397599999999784e+02
4.100000000000000000e+02,8.063546099999999797e+02
4.110000000000000000e+02,8.067647699999999986e+02
4.120000000000000000e+02,8.071703499999999849e+02
4.130000000000000000e+02,8.075713500000000522e+02
4.140000000000000000e+02,8.079677699999999732e+02
4.150000000000000000e+02,8.083597999999999502e+02
4.160000000000000000e+02,8.087473800000000210e+02
4.170000000000000000e+02,8.091305499999999711e+02
4.180000000000000000e+02,8.095094000000000278e+02
4.190000000000000000e+02,8.098840300000000525e+02
4.200000000000000000e+02,8.102543899999999439e+02
4.210000000000000000e+02,8.106206100000000561e+02
4.220000000000000000e+02,8.109826699999999846e+02
4.230000000000000000e+02,8.113406999999999698e+02
4.240000000000000000e+02,8.116946400000000494e+02
4.250000000000000000e+02,8.120446200000000090e+02
4.260000000000000000e+02,8.123906200000000126e+02
4.270000000000000000e+02,8.127327299999999468e+02
4.280000000000000000e+02,8.130709799999999632e+02
4.290000000000000000e+02,8.134053999999999860e+02
4.300000000000000000e+02,8.137360800000000154e+02
4.310000000000000000e+02,8.140629900000000134e+02
4.320000000000000000e+02,8.143862299999999550e+02
4.330000000000000000e+02,8.147058100000000422e+02
4.340000000000000000e+02,8.150217900000000100e+02
4.350000000000000000e+02,8.153342300000000478e+02
4.360000000000000000e+02,8.156430699999999661e+02
4.370000000000000000e+02,8.159484899999999925e+02
4.380000000000000000e+02,8.162504900000000134e+02
4.390000000000000000e+02,8.165490099999999529e+02
4.400000000000000000e+02,8.168441800000000512e+02
4.410000000000000000e+02,8.171359899999999925e+02
4.420000000000000000e+02,8.174245600000000422e+02
4.430000000000000000e+02,8.177098399999999856e+02
4.440000000000000000e+02,8.179919399999999996e+02
4.450000000000000000e+02,8.182708099999999831e+02
4.460000000000000000e+02,8.185465100000000120e+02
4.470000000000000000e+02,8.188191500000000360e+02
4.480000000000000000e+02,8.190886799999999539e+02
4.490000000000000000e+02,8.193551599999999553e+02
4.500000000000000000e+02,8.196186500000000024e+02
4.510000000000000000e+02,8.198791499999999814e+02
4.520000000000000000e+02,8.201367199999999684e+02
4.530000000000000000e+02,8.203913599999999633e+02
4.540000000000000000e+02,8.206431300000000419e+02
4.550000000000000000e+02,8.208920299999999770e+02
4.560000000000000000e+02,8.211381199999999581e+02
4.570000000000000000e+02,8.213814700000000357e+02
4.580000000000000000e+02,8.216220700000000079e+02
4.590000000000000000e+02,8.218599199999999882e+02
4.600000000000000000e+02,8.220950900000000274e+02
4.610000000000000000e+02,8.223276399999999740e+02
4.620000000000000000e+02,8.225575000000000045e+02
4.630000000000000000e+02,8.227847900000000436e+02
4.640000000000000000e+02,8.230095199999999522e+02
4.650000000000000000e+02,8.232316899999999578e+02
4.660000000000000000e+02,8.234513500000000477e+02
4.670000000000000000e+02,8.236685199999999440e+02
4.680000000000000000e+02,8.238832400000000007e+02
4.690000000000000000e+02,8.240955800000000409e+02
4.700000000000000000e+02,8.243054799999999886e+02
4.710000000000000000e+02,8.245130000000000337e+02
4.720000000000000000e+02,8.247181399999999485e+02
4.730000000000000000e+02,8.249210199999999986e+02
4.740000000000000000e+02,8.251215799999999945e+02
4.750000000000000000e+02,8.253198899999999867e+02
4.760000000000000000e+02,8.255159300000000258e+02
4.770000000000000000e+02,8.257097800000000234e+02
4.780000000000000000e+02,8.259014300000000048e+02
4.790000000000000000e+02,8.260908799999999701e+02
4.800000000000000000e+02,8.262781999999999698e+02
4.810000000000000000e+02,8.264634399999999914e+02
4.820000000000000000e+02,8.266465500000000475e+02
4.830000000000000000e+02,8.268275800000000118e+02
4.840000000000000000e+02,8.270065899999999601e+02
4.850000000000000000e+02,8.271835300000000188e+02
4.860000000000000000e+02,8.273585199999999986e+02
4.870000000000000000e+02,8.275314899999999625e+02
4.880000000000000000e+02,8.277025099999999611e+02
4.890000000000000000e+02,8.278716399999999567e+02
4.900000000000000000e+02,8.280388199999999870e+02
4.910000000000000000e+02,8.282041000000000395e+02
4.920000000000000000e+02,8.283674899999999752e+02
4.930000000000000000e+02,8.285290499999999838e+02
4.940000000000000000e+02,8.286888400000000274e+02
4.950000000000000000e+02,8.288467399999999543e+02
4.960000000000000000e+02,8.290029299999999921e+02
4.970000000000000000e+02,8.291572899999999890e+02
4.980000000000000000e+02,8.293098800000000210e+02
4.990000000000000000e+02,8.294608200000000124e+02
5.000000000000000000e+02,8.296099900000000389e+02
5.010000000000000000e+02,8.297575100000000248e+02
5.020000000000000000e+02,8.299033799999999701e+02
5.030000000000000000e+02,8.300475500000000011e+02
5.040000000000000000e+02,8.301900600000000168e+02
5.050000000000000000e+02,8.303309900000000425e+02
5.060000000000000000e+02,8.304703399999999647e+02
5.070000000000000000e+02,8.306080899999999474e+02
5.080000000000000000e+02,8.307443200000000161e+02
5.090000000000000000e+02,8.308789699999999812e+02
5.100000000000000000e+02,8.310121500000000196e+02
5.110000000000000000e+02,8.311437399999999798e+02
5.120000000000000000e+02,8.312738600000000133e+02
5.130000000000000000e+02,8.314025299999999561e+02
5.140000000000000000e+02,8.315297900000000482e+02
5.150000000000000000e+02,8.316555200000000241e+02
5.160000000000000000e+02,8.317798500000000104e+02
5.170000000000000000e+02,8.319028299999999945e+02
5.180000000000000000e+02,8.320243500000000267e+02
5.190000000000000000e+02,8.321445300000000316e+02
5.200000000000000000e+02,8.322633100000000468e+02
5.210000000000000000e+02,8.323808000000000220e+02
5.220000000000000000e+02,8.324968900000000076e+02
5.230000000000000000e+02,8.326117600000000039e+02
5.240000000000000000e+02,8.327252200000000357e+02
5.250000000000000000e+02,8.328374599999999646e+02
5.260000000000000000e+02,8.329484300000000303e+02
5.270000000000000000e+02,8.330581100000000561e+02
5.280000000000000000e+02,8.331665600000000040e+02
5.290000000000000000e+02,8.332738000000000511e+02
5.300000000000000000e+02,8.333798199999999952e+02
5.310000000000000000e+02,8.334846199999999499e+02
5.320000000000000000e+02,8.335882599999999911e+02
5.330000000000000000e+02,8.336906699999999546e+02
5.340000000000000000e+02,8.337919900000000553e+02
5.350000000000000000e+02,8.338921500000000151e+02
5.360000000000000000e+02,8.339911499999999478e+02
5.370000000000000000e+02,8.340889899999999670e+02
5.380000000000000000e+02,8.341857899999999972e+02
5.390000000000000000e+02,8.342814899999999625e+02
5.400000000000000000e+02,8.343760399999999890e+02
5.410000000000000000e+02,8.344696000000000140e+02
5.420000000000000000e+02,8.345620099999999866e+02
5.430000000000000000e+02,8.346534400000000460e+02
5.440000000000000000e+02,8.347438399999999774e+02
5.450000000000000000e+02,8.348331899999999450e+02
5.460000000000000000e+02,8.349215100000000120e+02
5.470000000000000000e+02,8.350088500000000522e+02
5.480000000000000000e+02,8.350952099999999518e+02
5.490000000000000000e+02,8.351806000000000267e+02
5.500000000000000000e+02,8.352650099999999611e+02
5.510000000000000000e+02,8.353484499999999571e+02
5.520000000000000000e+02,8.354309700000000021e+02
5.530000000000000000e+02,8.355125100000000202e+02
5.540000000000000000e+02,8.355931399999999485e+02
5.550000000000000000e+02,8.356728500000000395e+02
5.560000000000000000e+02,8.357517100000000028e+02
5.570000000000000000e+02,8.358296500000000151e+02
5.580000000000000000e+02,8.359066800000000512e+02
5.590000000000000000e+02,8.359828499999999849e+02
5.600000000000000000e+02,8.360581700000000183e+02
5.610000000000000000e+02,8.361326299999999492e+02
5.620000000000000000e+02,8.362062399999999798e+02
5.630000000000000000e+02,8.362789900000000216e+02
5.640000000000000000e+02,8.363509500000000116e+02
5.650000000000000000e+02,8.364221199999999499e+02
5.660000000000000000e+02,8.364924300000000130e+02
5.670000000000000000e+02,8.365619500000000244e+02
5.680000000000000000e+02,8.366307399999999461e+02
5.690000000000000000e+02,8.366986699999999928e+02
5.700000000000000000e+02,8.367658699999999499e+02
5.710000000000000000e+02,8.368322799999999688e+02
5.720000000000000000e+02,8.368980099999999993e+02
5.730000000000000000e+02,8.369629499999999780e+02
5.740000000000000000e+02,8.370271000000000186e+02
5.750000000000000000e+02,8.370905800000000454e+02
5.760000000000000000e+02,8.371533200000000079e+02
5.770000000000000000e+02,8.372153899999999567e+02
5.780000000000000000e+02,8.372767300000000432e+02
5.790000000000000000e+02,8.373373400000000402e+02
5.800000000000000000e+02,8.373973399999999856e+02
5.810000000000000000e+02,8.374565999999999804e+02
5.820000000000000000e+02,8.375152000000000498e+02
5.830000000000000000e+02,8.375731200000000172e+02
5.840000000000000000e+02,8.376304300000000467e+02
5.850000000000000000e+02,8.376870099999999866e+02
5.860000000000000000e+02,8.377430399999999509e+02
5.870000000000000000e+02,8.377984000000000151e+02
5.880000000000000000e+02,8.378530899999999519e+02
5.890000000000000000e+02,8.379072300000000268e+02
5.900000000000000000e+02,8.379606899999999996e+02
5.910000000000000000e+02,8.380136099999999715e+02
5.920000000000000000e+02,8.380658600000000433e+02
5.930000000000000000e+02,8.381175500000000511e+02
5.940000000000000000e+02,8.381686399999999821e+02
5.950000000000000000e+02,8.382191800000000512e+02
5.960000000000000000e+02,8.382691700000000310e+02
5.970000000000000000e+02,8.383185399999999845e+02
5.980000000000000000e+02,8.383673700000000508e+02
5.990000000000000000e+02,8.384156500000000278e+02