# Time [s], Convective Heat Transfer Coefficient [W/m2K]
1.000000000000000000e+00,0.000000000000000000e+00
2.000000000000000000e+00,0.000000000000000000e+00
3.000000000000000000e+00,0.000000000000000000e+00
4.000000000000000000e+00,0.000000000000000000e+00
5.000000000000000000e+00,0.000000000000000000e+00
6.000000000000000000e+00,2.412849599104084641e-02
7.000000000000000000e+00,4.193564748117330210e-02
8.000000000000000000e+00,6.603611858342180174e-02
9.000000000000000000e+00,9.884494996052221871e-02
1.000000000000000000e+01,1.408097186817782731e-01
1.100000000000000000e+01,1.923342972364132653e-01
1.200000000000000000e+01,2.533947939768209645e-01
1.300000000000000000e+01,3.236863100159504958e-01
1.400000000000000000e+01,4.026078114837982613e-01
1.500000000000000000e+01,4.894681063550282984e-01
1.600000000000000000e+01,5.834252635517647168e-01
1.700000000000000000e+01,6.836094560656591490e-01
1.800000000000000000e+01,7.891820492369118201e-01
1.900000000000000000e+01,8.993283815548740456e-01
2.000000000000000000e+01,1.019373124938796948e+00
2.100000000000000000e+01,1.139162596876160505e+00
2.200000000000000000e+01,1.260584967665308698e+00
2.300000000000000000e+01,1.383559058256963015e+00
2.400000000000000000e+01,1.507700205562189755e+00
2.500000000000000000e+01,1.632643726191058020e+00
2.600000000000000000e+01,1.758056592272139618e+00
2.700000000000000000e+01,1.883644661355803107e+00
2.800000000000000000e+01,2.009150848738179285e+00
2.900000000000000000e+01,2.134353636716773917e+00
3.000000000000000000e+01,2.259064519952833194e+00
3.100000000000000000e+01,2.383121249511967576e+00
3.200000000000000000e+01,2.506393083896539586e+00
3.300000000000000000e+01,2.628764121151434541e+00
3.400000000000000000e+01,2.750142678475222979e+00
3.500000000000000000e+01,2.870448069893502208e+00
3.600000000000000000e+01,2.989617486985290284e+00
3.700000000000000000e+01,3.107597620903660651e+00
3.800000000000000000e+01,3.224347072955488613e+00
3.900000000000000000e+01,3.339835648155811576e+00
4.000000000000000000e+01,3.454036312090873473e+00
4.100000000000000000e+01,3.566933398078798056e+00
4.200000000000000000e+01,3.678515580458602940e+00
4.300000000000000000e+01,3.788776521967579303e+00
4.400000000000000000e+01,3.897715463748594900e+00
4.500000000000000000e+01,4.005332815238834776e+00
4.600000000000000000e+01,4.111637002410596153e+00
4.700000000000000000e+01,4.216635000244359333e+00
4.800000000000000000e+01,4.320337159071744537e+00
4.900000000000000000e+01,4.422756178627776258e+00
5.000000000000000000e+01,4.523906911494218086e+00
5.100000000000000000e+01,4.623805227085983738e+00
5.200000000000000000e+01,4.722464846936878402e+00
5.300000000000000000e+01,4.819905628654993279e+00
5.400000000000000000e+01,4.916144299001184770e+00
5.500000000000000000e+01,5.011198448967233432e+00
5.600000000000000000e+01,5.105086668152291729e+00
5.700000000000000000e+01,5.197828093895386026e+00
5.800000000000000000e+01,5.289441180769029138e+00
5.900000000000000000e+01,5.379943168491670313e+00
6.000000000000000000e+01,5.469354789390328264e+00
6.100000000000000000e+01,5.557693142289923394e+00
6.200000000000000000e+01,5.644989573270955852e+00
6.300000000000000000e+01,5.731241142324507543e+00
6.400000000000000000e+01,5.816471756791930403e+00
6.500000000000000000e+01,5.900700955409636350e+00
6.600000000000000000e+01,5.983945662169706026e+00
6.700000000000000000e+01,6.066226024220479296e+00
6.800000000000000000e+01,6.147561786738887868e+00
6.900000000000000000e+01,6.227971249786465435e+00
7.000000000000000000e+01,6.307475829672536172e+00
7.100000000000000000e+01,6.386092875417243242e+00
7.200000000000000000e+01,6.463839688252075000e+00
7.300000000000000000e+01,6.540732494655073559e+00
7.400000000000000000e+01,6.616786605794345633e+00
7.500000000000000000e+01,6.692015329847610161e+00
7.600000000000000000e+01,6.766432225503823616e+00
7.700000000000000000e+01,6.840048289371016388e+00
7.800000000000000000e+01,6.912876112832760711e+00
7.900000000000000000e+01,6.984926090752071381e+00
8.000000000000000000e+01,7.056208966855779252e+00
8.100000000000000000e+01,7.126736005171951938e+00
8.200000000000000000e+01,7.196517334755951012e+00
8.300000000000000000e+01,7.265562035947123576e+00
8.400000000000000000e+01,7.333881917792401950e+00
8.500000000000000000e+01,7.401486977750117546e+00
8.600000000000000000e+01,7.468386805938281192e+00
8.700000000000000000e+01,7.534591017485720243e+00
8.800000000000000000e+01,7.600109235763265580e+00
8.900000000000000000e+01,7.664950878919937871e+00
9.000000000000000000e+01,7.729126144114534469e+00
9.100000000000000000e+01,7.792643426664500161e+00
9.200000000000000000e+01,7.855512298692349127e+00
9.300000000000000000e+01,7.917741539518416971e+00
9.400000000000000000e+01,7.979339371463707309e+00
9.500000000000000000e+01,8.040315304133342167e+00
9.600000000000000000e+01,8.100677354927061202e+00
9.700000000000000000e+01,8.160433381442322442e+00
9.800000000000000000e+01,8.219592818638307818e+00
9.900000000000000000e+01,8.278161949009566811e+00
1.000000000000000000e+02,8.336149337868855369e+00
1.010000000000000000e+02,8.393561351593207931e+00
1.020000000000000000e+02,8.450406562503337327e+00
1.030000000000000000e+02,8.506690583462573230e+00
1.040000000000000000e+02,8.562421365395890049e+00
1.050000000000000000e+02,8.617605260231693265e+00
1.060000000000000000e+02,8.672247896219216656e+00
1.070000000000000000e+02,8.726355602466359329e+00
1.080000000000000000e+02,8.779934451446163024e+00
1.090000000000000000e+02,8.833000173567526758e+00
1.100000000000000000e+02,8.885546448901738614e+00
1.110000000000000000e+02,8.937591324593981312e+00
1.120000000000000000e+02,8.989153793749212085e+00
1.130000000000000000e+02,9.040248731673957039e+00
1.140000000000000000e+02,9.090881886897260955e+00
1.150000000000000000e+02,9.141051082925221394e+00
1.160000000000000000e+02,9.190751910243037059e+00
1.170000000000000000e+02,9.239980719581463831e+00
1.180000000000000000e+02,9.288735254778838879e+00
1.190000000000000000e+02,9.337013232762272352e+00
1.200000000000000000e+02,9.384814067955415950e+00
1.210000000000000000e+02,9.432134835131218864e+00
1.220000000000000000e+02,9.478974680148345655e+00
1.230000000000000000e+02,9.525328650467995928e+00
1.240000000000000000e+02,9.571192103977342214e+00
1.250000000000000000e+02,9.616558409658289008e+00
1.260000000000000000e+02,9.661417277840891771e+00
1.270000000000000000e+02,9.705758647467991551e+00
1.280000000000000000e+02,9.749567000829870267e+00
1.290000000000000000e+02,9.792826842655600217e+00
1.300000000000000000e+02,9.835518328152069500e+00
1.310000000000000000e+02,9.877619112294544479e+00
1.320000000000000000e+02,9.919105148156841523e+00
1.330000000000000000e+02,9.959948963159497737e+00
1.340000000000000000e+02,1.000011953585964442e+01
1.350000000000000000e+02,1.003958658451886343e+01
1.360000000000000000e+02,1.007831669778339823e+01
1.370000000000000000e+02,1.011627878861577656e+01
1.380000000000000000e+02,1.015344271452485003e+01
1.390000000000000000e+02,1.018978415904139645e+01
1.400000000000000000e+02,1.022528595067888268e+01
1.410000000000000000e+02,1.025994134031391525e+01
1.420000000000000000e+02,1.029375727405740015e+01
1.430000000000000000e+02,1.032675657464569241e+01
1.440000000000000000e+02,1.035990385076560472e+01
1.450000000000000000e+02,1.039212360624760123e+01
1.460000000000000000e+02,1.042359245192729134e+01
1.470000000000000000e+02,1.045439154547334759e+01
1.480000000000000000e+02,1.048467629470674822e+01
1.490000000000000000e+02,1.051464743793780166e+01
1.500000000000000000e+02,1.054448985356632562e+01
1.510000000000000000e+02,1.057438530416353650e+01
1.520000000000000000e+02,1.060451073829729829e+01
1.530000000000000000e+02,1.063503214071122827e+01
1.540000000000000000e+02,1.066610492309827052e+01
1.550000000000000000e+02,1.069786690121349793e+01
1.560000000000000000e+02,1.073044207504860381e+01
1.570000000000000000e+02,1.076393224904941626e+01
1.580000000000000000e+02,1.079842714954730631e+01
1.590000000000000000e+02,1.083398765902958871e+01
1.600000000000000000e+02,1.087066342924319429e+01
1.610000000000000000e+02,1.090848053326849154e+01
1.620000000000000000e+02,1.094744794137899824e+01
1.630000000000000000e+02,1.098754866630773286e+01
1.640000000000000000e+02,1.102874425936569125e+01
1.650000000000000000e+02,1.107097594112720351e+01
1.660000000000000000e+02,1.111416802207645915e+01
1.670000000000000000e+02,1.115822097144476110e+01
1.680000000000000000e+02,1.120302024798862561e+01
1.690000000000000000e+02,1.124843059466750361e+01
1.700000000000000000e+02,1.129431934780874869e+01
1.710000000000000000e+02,1.134053975214184362e+01
1.720000000000000000e+02,1.139010055215292283e+01
1.730000000000000000e+02,1.143733221415257439e+01
1.740000000000000000e+02,1.148363800229869724e+01
1.750000000000000000e+02,1.152975984182696401e+01
1.760000000000000000e+02,1.157545873343587317e+01
1.770000000000000000e+02,1.162073720328167958e+01
1.780000000000000000e+02,1.166547244050167365e+01
1.790000000000000000e+02,1.170961046579543918e+01
1.800000000000000000e+02,1.175308494356534972e+01
1.810000000000000000e+02,1.179584728176352471e+01
1.820000000000000000e+02,1.183786568908719872e+01
1.830000000000000000e+02,1.187911450334587826e+01
1.840000000000000000e+02,1.191957320489206573e+01
1.850000000000000000e+02,1.195923783622754755e+01
1.860000000000000000e+02,1.199810555761529685e+01
1.870000000000000000e+02,1.203617662234445262e+01
1.880000000000000000e+02,1.207345700355244666e+01
1.890000000000000000e+02,1.210996053231879799e+01
1.900000000000000000e+02,1.214569557541152278e+01
1.910000000000000000e+02,1.218068271787143964e+01
1.920000000000000000e+02,1.221493473321697465e+01
1.930000000000000000e+02,1.224846945490250150e+01
1.940000000000000000e+02,1.228130476122614390e+01
1.950000000000000000e+02,1.231346360693240172e+01
1.960000000000000000e+02,1.234495892973665754e+01
1.970000000000000000e+02,1.237581287296486821e+01
1.980000000000000000e+02,1.240604310865469095e+01
1.990000000000000000e+02,1.243566561051305186e+01
2.000000000000000000e+02,1.246469749418136352e+01
2.010000000000000000e+02,1.249315992768009131e+01
2.020000000000000000e+02,1.252106349328393442e+01
2.030000000000000000e+02,1.254842761311938482e+01
2.040000000000000000e+02,1.257526445208836385e+01
2.050000000000000000e+02,1.260159316196430090e+01
2.060000000000000000e+02,1.262742565061754085e+01
2.070000000000000000e+02,1.265277704912869972e+01
2.080000000000000000e+02,1.267765567741297161e+01
2.090000000000000000e+02,1.270207791243989170e+01
2.100000000000000000e+02,1.272605676527714280e+01
2.110000000000000000e+02,1.274959791978249335e+01
2.120000000000000000e+02,1.277271788233880123e+01
2.130000000000000000e+02,1.279542584640712377e+01
2.140000000000000000e+02,1.281773081105028211e+01
2.150000000000000000e+02,1.283964073670566641e+01
2.160000000000000000e+02,1.286117077623337224e+01
2.170000000000000000e+02,1.288232376280111069e+01
2.180000000000000000e+02,1.290311221187173629e+01
2.190000000000000000e+02,1.292354260962676449e+01
2.200000000000000000e+02,1.294362201024815384e+01
2.210000000000000000e+02,1.296335963217967269e+01
2.220000000000000000e+02,1.298276217561716450e+01
2.230000000000000000e+02,1.300183725646654054e+01
2.240000000000000000e+02,1.302059104827424640e+01
2.250000000000000000e+02,1.303902995815668753e+01
2.260000000000000000e+02,1.305716172454928703e+01
2.270000000000000000e+02,1.307499245715007063e+01
2.280000000000000000e+02,1.309252672999668476e+01
2.290000000000000000e+02,1.310977257604501212e+01
2.300000000000000000e+02,1.312673397122894237e+01
2.310000000000000000e+02,1.314341590334427678e+01
2.320000000000000000e+02,1.315982496912403654e+01
2.330000000000000000e+02,1.317596645681765644e+01
2.340000000000000000e+02,1.319184476780973903e+01
2.350000000000000000e+02,1.320746577762501062e+01
2.360000000000000000e+02,1.322283340569813426e+01
2.370000000000000000e+02,1.323795251196142964e+01
2.380000000000000000e+02,1.325282848761363930e+01
2.390000000000000000e+02,1.326746419169335311e+01
2.400000000000000000e+02,1.328186628416806947e+01
2.410000000000000000e+02,1.329603724030361356e+01
2.420000000000000000e+02,1.330998081487264884e+01
2.430000000000000000e+02,1.332370209559809027e+01
2.440000000000000000e+02,1.333720472678674795e+01
2.450000000000000000e+02,1.335049210733210145e+01
2.460000000000000000e+02,1.336356903283254560e+01
2.470000000000000000e+02,1.337643873905252079e+01
2.480000000000000000e+02,1.338910363626248667e+01
2.490000000000000000e+02,1.340156831592178222e+01
2.500000000000000000e+02,1.341383712417961682e+01
2.510000000000000000e+02,1.342591117796499844e+01
2.520000000000000000e+02,1.343779734071132914e+01
2.530000000000000000e+02,1.344949542399428744e+01
2.540000000000000000e+02,1.346101071797585647e+01
2.550000000000000000e+02,1.347234420654885056e+01
2.560000000000000000e+02,1.348350187608706108e+01
2.570000000000000000e+02,1.349448336111585434e+01
2.580000000000000000e+02,1.350529419079099824e+01
2.590000000000000000e+02,1.351593683536231083e+01
2.600000000000000000e+02,1.352641354623374248e+01
2.610000000000000000e+02,1.353672667757179937e+01
2.620000000000000000e+02,1.354688002553234405e+01
2.630000000000000000e+02,1.355687556979195030e+01
2.640000000000000000e+02,1.356671622233721131e+01
2.650000000000000000e+02,1.357640385240922143e+01
2.660000000000000000e+02,1.358594265569918136e+01
2.670000000000000000e+02,1.359533229868729620e+01
2.680000000000000000e+02,1.360457819624643427e+01
2.690000000000000000e+02,1.361368079868744907e+01
2.700000000000000000e+02,1.362264313189753473e+01
2.710000000000000000e+02,1.363146750485982572e+01
2.720000000000000000e+02,1.364015601811892253e+01
2.730000000000000000e+02,1.364871119388880594e+01
2.740000000000000000e+02,1.365713496964738738e+01
2.750000000000000000e+02,1.366542895286741377e+01
2.760000000000000000e+02,1.367359680249997034e+01
2.770000000000000000e+02,1.368163915173544609e+01
2.780000000000000000e+02,1.368955774875577625e+01
2.790000000000000000e+02,1.369735488894434638e+01
2.800000000000000000e+02,1.370503353675002600e+01
2.810000000000000000e+02,1.371259495669999318e+01
2.820000000000000000e+02,1.372004133494277056e+01
2.830000000000000000e+02,1.372737353818119033e+01
2.840000000000000000e+02,1.373459453397491359e+01
2.850000000000000000e+02,1.374170497863983087e+01
2.860000000000000000e+02,1.374870756440863140e+01
2.870000000000000000e+02,1.375560292617764091e+01
2.880000000000000000e+02,1.376239447281390227e+01
2.890000000000000000e+02,1.376908318721645941e+01
2.900000000000000000e+02,1.377566942727847632e+01
2.910000000000000000e+02,1.378215576382722318e+01
2.920000000000000000e+02,1.378854419974487655e+01
2.930000000000000000e+02,1.379483555776116255e+01
2.940000000000000000e+02,1.380103188292002692e+01
2.950000000000000000e+02,1.380713459513710895e+01
2.960000000000000000e+02,1.381314467623492526e+01
2.970000000000000000e+02,1.381906457225990614e+01
2.980000000000000000e+02,1.382489457384665421e+01
2.990000000000000000e+02,1.383063631365364721e+01
3.000000000000000000e+02,1.383629159913050799e+01
3.010000000000000000e+02,1.384186247310536189e+01
3.020000000000000000e+02,1.384734877111614182e+01
3.030000000000000000e+02,1.385275252232974097e+01
3.040000000000000000e+02,1.385807464956849877e+01
3.050000000000000000e+02,1.386331686187185674e+01
3.060000000000000000e+02,1.386848043441415790e+01
3.070000000000000000e+02,1.387356669682496602e+01
3.080000000000000000e+02,1.387857618228771273e+01
3.090000000000000000e+02,1.388351045244041693e+01
3.100000000000000000e+02,1.388837015179634982e+01
3.110000000000000000e+02,1.389315755822656229e+01
3.120000000000000000e+02,1.389787251690668413e+01
3.130000000000000000e+02,1.390251771783451673e+01
3.140000000000000000e+02,1.390709299707898339e+01
3.150000000000000000e+02,1.391160024565475339e+01
3.160000000000000000e+02,1.391603935296855177e+01
3.170000000000000000e+02,1.392041213990021831e+01
3.180000000000000000e+02,1.392471915309353570e+01
3.190000000000000000e+02,1.392896208241694467e+01
3.200000000000000000e+02,1.393314200890637267e+01
3.210000000000000000e+02,1.393725946697519547e+01
3.220000000000000000e+02,1.394131462678216593e+01
3.230000000000000000e+02,1.394531048560081565e+01
3.240000000000000000e+02,1.394924600161439443e+01
3.250000000000000000e+02,1.395312277943813406e+01
3.260000000000000000e+02,1.395694205810685951e+01
3.270000000000000000e+02,1.396070423169840247e+01
3.280000000000000000e+02,1.396441011229149787e+01
3.290000000000000000e+02,1.396806134888972295e+01
3.300000000000000000e+02,1.397165760687192204e+01
3.310000000000000000e+02,1.397520076871915506e+01
3.320000000000000000e+02,1.397869097460173649e+01
3.330000000000000000e+02,1.398212938116122217e+01
3.340000000000000000e+02,1.398551714163563808e+01
3.350000000000000000e+02,1.398885397027348709e+01
3.360000000000000000e+02,1.399214173329838928e+01
3.370000000000000000e+02,1.399537984207682229e+01
3.380000000000000000e+02,1.399857045594292337e+01
3.390000000000000000e+02,1.400171375890014325e+01
3.400000000000000000e+02,1.400481011274053600e+01
3.410000000000000000e+02,1.400786065324505714e+01
3.420000000000000000e+02,1.401086615553809089e+01
3.430000000000000000e+02,1.401382673688666536e+01
3.440000000000000000e+02,1.401674358599576564e+01
3.450000000000000000e+02,1.401961735276416476e+01
3.460000000000000000e+02,1.402244850664502707e+01
3.470000000000000000e+02,1.402523751557261456e+01
3.480000000000000000e+02,1.402798544085813504e+01
3.490000000000000000e+02,1.403069239001792035e+01
3.500000000000000000e+02,1.403335948019947566e+01
3.510000000000000000e+02,1.403598746966598121e+01
3.520000000000000000e+02,1.403857604575729034e+01
3.530000000000000000e+02,1.404112667688879590e+01
3.540000000000000000e+02,1.404363946358483162e+01
3.550000000000000000e+02,1.404611515829217971e+01
3.560000000000000000e+02,1.404855409662831001e+01
3.570000000000000000e+02,1.405095708751582251e+01
3.580000000000000000e+02,1.405332493822405660e+01
3.590000000000000000e+02,1.405565721010794356e+01
3.600000000000000000e+02,1.405795547850968497e+01
3.610000000000000000e+02,1.406021971743324173e+01
3.620000000000000000e+02,1.406245037399583886e+01
3.630000000000000000e+02,1.406464819015682544e+01
3.640000000000000000e+02,1.406681390649132624e+01
3.650000000000000000e+02,1.406894719769371704e+01
3.660000000000000000e+02,1.407104915736911188e+01
3.670000000000000000e+02,1.407312016812918820e+01
3.680000000000000000e+02,1.407516061173197208e+01
3.690000000000000000e+02,1.407717092817089544e+01
3.700000000000000000e+02,1.407915185182883633e+01
3.710000000000000000e+02,1.408110340743196076e+01
3.720000000000000000e+02,1.408302662270070194e+01
3.730000000000000000e+02,1.408492093071077456e+01
3.740000000000000000e+02,1.408678765251421616e+01
3.750000000000000000e+02,1.408862692792308202e+01
3.760000000000000000e+02,1.409043871940615134e+01
3.770000000000000000e+02,1.409222452173736606e+01
3.780000000000000000e+02,1.409398358851391286e+01
3.790000000000000000e+02,1.409571670560740309e+01
3.800000000000000000e+02,1.409742459892712496e+01
3.810000000000000000e+02,1.409910722786457882e+01
3.820000000000000000e+02,1.410076508144993035e+01
3.830000000000000000e+02,1.410239841255136639e+01
3.840000000000000000e+02,1.410400806201947255e+01
3.850000000000000000e+02,1.410559398719026269e+01
3.860000000000000000e+02,1.410715661576869628e+01
3.870000000000000000e+02,1.410869625723492149e+01
3.880000000000000000e+02,1.411021292659930104e+01
3.890000000000000000e+02,1.411170781429446386e+01
3.900000000000000000e+02,1.411318046396319303e+01
3.910000000000000000e+02,1.411463159459405325e+01
3.920000000000000000e+02,1.411606133692039933e+01
3.930000000000000000e+02,1.411746999758168641e+01
3.940000000000000000e+02,1.411885829384756619e+01
3.950000000000000000e+02,1.412022588543129586e+01
3.960000000000000000e+02,1.412157348874476526e+01
3.970000000000000000e+02,1.412290152603313942e+01
3.980000000000000000e+02,1.412420994963083309e+01
3.990000000000000000e+02,1.412549918109120206e+01
4.000000000000000000e+02,1.412676952418803644e+01
4.010000000000000000e+02,1.412802104773683354e+01
4.020000000000000000e+02,1.412925440672443145e+01
4.030000000000000000e+02,1.413046937613633958e+01
4.040000000000000000e+02,1.413166690330984210e+01
4.050000000000000000e+02,1.413284676266589379e+01
4.060000000000000000e+02,1.413400919742588435e+01
4.070000000000000000e+02,1.413515468487442561e+01
4.080000000000000000e+02,1.413628352612812300e+01
4.090000000000000000e+02,1.413739572914661125e+01
4.100000000000000000e+02,1.413849130176827806e+01
4.110000000000000000e+02,1.413957136418649796e+01
4.120000000000000000e+02,1.414063516244270069e+01
4.130000000000000000e+02,1.414168381600846480e+01
4.140000000000000000e+02,1.414271657078002242e+01
4.150000000000000000e+02,1.414373454553223652e+01
4.160000000000000000e+02,1.414473774663604821e+01
4.170000000000000000e+02,1.414572612186667300e+01
4.180000000000000000e+02,1.414669979441351977e+01
4.190000000000000000e+02,1.414765935518236262e+01
4.200000000000000000e+02,1.414860486838279741e+01
4.210000000000000000e+02,1.414953669045154250e+01
4.220000000000000000e+02,1.415045488525076856e+01
4.230000000000000000e+02,1.415135934116964833e+01
4.240000000000000000e+02,1.415225053104052044e+01
4.250000000000000000e+02,1.415312910269952518e+01
4.260000000000000000e+02,1.415399471024635858e+01
4.270000000000000000e+02,1.415484735843085495e+01
4.280000000000000000e+02,1.415568781136550669e+01
4.290000000000000000e+02,1.415651572292039795e+01
4.300000000000000000e+02,1.415733173994004446e+01
4.310000000000000000e+02,1.415813586653199074e+01
4.320000000000000000e+02,1.415892781478553175e+01
4.330000000000000000e+02,1.415970863971124594e+01
4.340000000000000000e+02,1.416047793633400786e+01
4.350000000000000000e+02,1.416123582515125889e+01
4.360000000000000000e+02,1.416198289348332473e+01
4.370000000000000000e+02,1.416271885294975341e+01
4.380000000000000000e+02,1.416344399878049742e+01
4.390000000000000000e+02,1.416415880107930469e+01
4.400000000000000000e+02,1.416486285457686556e+01
4.410000000000000000e+02,1.416555680417911489e+01
4.420000000000000000e+02,1.416624041952775137e+01
4.430000000000000000e+02,1.416691434519268533e+01
4.440000000000000000e+02,1.416757823401558625e+01
4.450000000000000000e+02,1.416823249701818099e+01
4.460000000000000000e+02,1.416887702024556539e+01
4.470000000000000000e+02,1.416951227278654102e+01
4.480000000000000000e+02,1.417013819883300663e+01
4.490000000000000000e+02,1.417075515061781488e+01
4.500000000000000000e+02,1.417136283903787941e+01
4.510000000000000000e+02,1.417196190759840491e+01
4.520000000000000000e+02,1.417255206708739657e+01
4.530000000000000000e+02,1.417313361110044134e+01
4.540000000000000000e+02,1.417370660002607252e+01
4.550000000000000000e+02,1.417427138552754151e+01
4.560000000000000000e+02,1.417482791130362685e+01
4.570000000000000000e+02,1.417537617929816385e+01
4.580000000000000000e+02,1.417591665743778684e+01
4.590000000000000000e+02,1.417644888152566018e+01
4.600000000000000000e+02,1.417697355233335799e+01
4.610000000000000000e+02,1.417749043858218982e+01
4.620000000000000000e+02,1.417800012431746026e+01
4.630000000000000000e+02,1.417850197055786410e+01
4.640000000000000000e+02,1.417899673590760656e+01
4.650000000000000000e+02,1.417948430540344340e+01
4.660000000000000000e+02,1.417996433121913213e+01
4.670000000000000000e+02,1.418043797917321847e+01
4.680000000000000000e+02,1.418090449380571449e+01
4.690000000000000000e+02,1.418136387652349839e+01
4.700000000000000000e+02,1.418181682714833158e+01
4.710000000000000000e+02,1.418226299771545129e+01
4.720000000000000000e+02,1.418270308785305467e+01
4.730000000000000000e+02,1.418313645857784167e+01
4.740000000000000000e+02,1.418356334387567941e+01
4.750000000000000000e+02,1.418398421039901436e+01
4.760000000000000000e+02,1.418439900103669871e+01
4.770000000000000000e+02,1.418480771685399588e+01
4.780000000000000000e+02,1.418521035890037929e+01
4.790000000000000000e+02,1.418560698638149020e+01
4.800000000000000000e+02,1.418599824016188471e+01
4.810000000000000000e+02,1.418638342314313050e+01
4.820000000000000000e+02,1.418676329242577516e+01
4.830000000000000000e+02,1.418713709279064261e+01
4.840000000000000000e+02,1.418750593016794959e+01
4.850000000000000000e+02,1.418786939825747773e+01
4.860000000000000000e+02,1.418822749788400550e+01
4.870000000000000000e+02,1.418857993912210702e+01
4.880000000000000000e+02,1.418892771127509000e+01
4.890000000000000000e+02,1.418927017546800506e+01
4.900000000000000000e+02,1.418960803013895777e+01
4.910000000000000000e+02,1.418994052017249174e+01
4.920000000000000000e+02,1.419026834392736802e+01
4.930000000000000000e+02,1.419059161831218674e+01
4.940000000000000000e+02,1.419090982079204011e+01
4.950000000000000000e+02,1.419122347518221794e+01
4.960000000000000000e+02,1.419153281457906068e+01
4.970000000000000000e+02,1.419183720021679562e+01
4.980000000000000000e+02,1.419213767886442490e+01
4.990000000000000000e+02,1.419243349550990807e+01
5.000000000000000000e+02,1.419272470884961024e+01
5.010000000000000000e+02,1.419301201678525359e+01
5.020000000000000000e+02,1.419329507113720723e+01
5.030000000000000000e+02,1.419357416294753804e+01
5.040000000000000000e+02,1.419384900216142853e+01
5.050000000000000000e+02,1.419411958927270945e+01
5.060000000000000000e+02,1.419438662196773926e+01
5.070000000000000000e+02,1.419464975206035717e+01
5.080000000000000000e+02,1.419490897998442591e+01
5.090000000000000000e+02,1.419516424807366484e+01
5.100000000000000000e+02,1.419541602148787796e+01
5.110000000000000000e+02,1.419566418441967315e+01
5.120000000000000000e+02,1.419590844680978492e+01
5.130000000000000000e+02,1.419614921565988119e+01
5.140000000000000000e+02,1.419638672365989862e+01
5.150000000000000000e+02,1.419662068072836725e+01
5.160000000000000000e+02,1.419685114529610459e+01
5.170000000000000000e+02,1.419707835001509721e+01
5.180000000000000000e+02,1.419730200481745541e+01
5.190000000000000000e+02,1.419752251655907216e+01
5.200000000000000000e+02,1.419774011782302914e+01
5.210000000000000000e+02,1.419795422816866903e+01
5.220000000000000000e+02,1.419816508018813828e+01
5.230000000000000000e+02,1.419837313871083317e+01
5.240000000000000000e+02,1.419857799752224281e+01
5.250000000000000000e+02,1.419878000528368034e+01
5.260000000000000000e+02,1.419897916223842316e+01
5.270000000000000000e+02,1.419917512026130346e+01
5.280000000000000000e+02,1.419936863438744190e+01
5.290000000000000000e+02,1.419955895006658508e+01
5.300000000000000000e+02,1.419974670617366819e+01
5.310000000000000000e+02,1.419993167069309159e+01
5.320000000000000000e+02,1.420011384384295994e+01
5.330000000000000000e+02,1.420029345804483611e+01
5.340000000000000000e+02,1.420047062959334561e+01
5.350000000000000000e+02,1.420064495232957213e+01
5.360000000000000000e+02,1.420081677474776782e+01
5.370000000000000000e+02,1.420098609702938930e+01
5.380000000000000000e+02,1.420115332566588151e+01
5.390000000000000000e+02,1.420131770624203682e+01
5.400000000000000000e+02,1.420147999350151657e+01
5.410000000000000000e+02,1.420163937501822282e+01
5.420000000000000000e+02,1.420179701177585407e+01
5.430000000000000000e+02,1.420195220743303111e+01
5.440000000000000000e+02,1.420210484607599888e+01
5.450000000000000000e+02,1.420225539215484822e+01
5.460000000000000000e+02,1.420240419400926157e+01
5.470000000000000000e+02,1.420255014911729852e+01
5.480000000000000000e+02,1.420269465042410673e+01
5.490000000000000000e+02,1.420283665346222968e+01
5.500000000000000000e+02,1.420297656458983049e+01
5.510000000000000000e+02,1.420311432590189327e+01
5.520000000000000000e+02,1.420325034371616013e+01
5.530000000000000000e+02,1.420338421194780310e+01
5.540000000000000000e+02,1.420351633689580062e+01
5.550000000000000000e+02,1.420364631248743947e+01
5.560000000000000000e+02,1.420377448698014966e+01
5.570000000000000000e+02,1.420390091849362868e+01
5.580000000000000000e+02,1.420402560712094342e+01
5.590000000000000000e+02,1.420414814681257809e+01
5.600000000000000000e+02,1.420426888579495639e+01
5.610000000000000000e+02,1.420438823028748487e+01
5.620000000000000000e+02,1.420450542613600042e+01
5.630000000000000000e+02,1.420462122765907864e+01
5.640000000000000000e+02,1.420473522881717621e+01
5.650000000000000000e+02,1.420484748771145078e+01
5.660000000000000000e+02,1.420495829449234648e+01
5.670000000000000000e+02,1.420506735916443120e+01
5.680000000000000000e+02,1.420517502987874181e+01
5.690000000000000000e+02,1.420528090062213167e+01
5.700000000000000000e+02,1.420538531953557992e+01
5.710000000000000000e+02,1.420548834469233945e+01
5.720000000000000000e+02,1.420558962810258130e+01
5.730000000000000000e+02,1.420568980792437408e+01
5.740000000000000000e+02,1.420578824612973357e+01
5.750000000000000000e+02,1.420588523282105697e+01
5.760000000000000000e+02,1.420598082606301382e+01
5.770000000000000000e+02,1.420607502591185245e+01
5.780000000000000000e+02,1.420616812244144889e+01
5.790000000000000000e+02,1.420625947766283659e+01
5.800000000000000000e+02,1.420634972966748677e+01
5.810000000000000000e+02,1.420643858849004459e+01
5.820000000000000000e+02,1.420652640218737695e+01
5.830000000000000000e+02,1.420661276479784085e+01
5.840000000000000000e+02,1.420669773437372285e+01
5.850000000000000000e+02,1.420678165895708567e+01
5.860000000000000000e+02,1.420686413259893932e+01
5.870000000000000000e+02,1.420694550333386630e+01
5.880000000000000000e+02,1.420702588719313120e+01
5.890000000000000000e+02,1.420710482024192878e+01
5.900000000000000000e+02,1.420718270849645570e+01
5.910000000000000000e+02,1.420725949399629862e+01
5.920000000000000000e+02,1.420733523477136906e+01
5.930000000000000000e+02,1.420740993085507853e+01
5.940000000000000000e+02,1.420748323432268734e+01
5.950000000000000000e+02,1.420755578313327128e+01
5.960000000000000000e+02,1.420762728735107494e+01
5.970000000000000000e+02,1.420769734106923643e+01
5.980000000000000000e+02,1.420776675619961260e+01