# Time [s], Temperature [C]
1.000000000000000000e+00,2.500000000000000000e+01
2.000000000000000000e+00,2.500000000000000000e+01
3.000000000000000000e+00,2.500000000000000000e+01
4.000000000000000000e+00,2.500000000000000000e+01
5.000000000000000000e+00,2.500000199999999850e+01
6.000000000000000000e+00,2.500001699999999971e+01
7.000000000000000000e+00,2.500007599999999996e+01
8.000000000000000000e+00,2.500028400000000062e+01
9.000000000000000000e+00,2.500089300000000136e+01
1.000000000000000000e+01,2.500241899999999973e+01
1.100000000000000000e+01,2.500580199999999920e+01
1.200000000000000000e+01,2.501255000000000095e+01
1.300000000000000000e+01,2.502485300000000024e+01
1.400000000000000000e+01,2.504563699999999926e+01
1.500000000000000000e+01,2.507855800000000102e+01
1.600000000000000000e+01,2.512791599999999903e+01
1.700000000000000000e+01,2.519854499999999931e+01
1.800000000000000000e+01,2.530233399999999833e+01
1.900000000000000000e+01,2.543688600000000122e+01
2.000000000000000000e+01,2.560934100000000058e+01
2.100000000000000000e+01,2.582545899999999861e+01
2.200000000000000000e+01,2.609043700000000143e+01
2.300000000000000000e+01,2.640920099999999948e+01
2.400000000000000000e+01,2.678629099999999852e+01
2.500000000000000000e+01,2.722573900000000080e+01
2.600000000000000000e+01,2.773113800000000140e+01
2.700000000000000000e+01,2.830557299999999898e+01
2.800000000000000000e+01,2.895153399999999877e+01
2.900000000000000000e+01,2.967111399999999932e+01
3.000000000000000000e+01,3.046588300000000160e+01
3.100000000000000000e+01,3.133687799999999868e+01
3.200000000000000000e+01,3.228483599999999853e+01
3.300000000000000000e+01,3.330998999999999910e+01
3.400000000000000000e+01,3.441237999999999886e+01
3.500000000000000000e+01,3.559183900000000023e+01
3.600000000000000000e+01,3.684772099999999995e+01
3.700000000000000000e+01,3.817922599999999989e+01
3.800000000000000000e+01,3.958555199999999985e+01
3.900000000000000000e+01,4.106559399999999727e+01
4.000000000000000000e+01,4.261788200000000160e+01
4.100000000000000000e+01,4.424118800000000107e+01
4.200000000000000000e+01,4.593415499999999696e+01
4.300000000000000000e+01,4.769497299999999740e+01
4.400000000000000000e+01,4.952204900000000265e+01
4.500000000000000000e+01,5.141369999999999862e+01
4.600000000000000000e+01,5.336836999999999875e+01
4.700000000000000000e+01,5.538398000000000110e+01
4.800000000000000000e+01,5.745890399999999687e+01
4.900000000000000000e+01,5.959162899999999752e+01
5.000000000000000000e+01,6.177986899999999792e+01
5.100000000000000000e+01,6.402202599999999677e+01
5.200000000000000000e+01,6.631624600000000669e+01
5.300000000000000000e+01,6.866039299999999912e+01
5.400000000000000000e+01,7.105297099999999944e+01
5.500000000000000000e+01,7.349210399999999765e+01
5.600000000000000000e+01,7.597627300000000616e+01
5.700000000000000000e+01,7.850331900000000473e+01
5.800000000000000000e+01,8.107154800000000705e+01
5.900000000000000000e+01,8.367962599999999895e+01
6.000000000000000000e+01,8.632526400000000422e+01
6.100000000000000000e+01,8.900743900000000508e+01
6.200000000000000000e+01,9.172521199999999908e+01
6.300000000000000000e+01,9.447541800000000478e+01
6.400000000000000000e+01,9.725714899999999830e+01
6.500000000000000000e+01,1.000688499999999976e+02
6.600000000000000000e+01,1.029090099999999950e+02
6.700000000000000000e+01,1.057763199999999983e+02
6.800000000000000000e+01,1.086697000000000060e+02
6.900000000000000000e+01,1.115879400000000032e+02
7.000000000000000000e+01,1.145298200000000008e+02
7.100000000000000000e+01,1.174938999999999965e+02
7.200000000000000000e+01,1.204794100000000014e+02
7.300000000000000000e+01,1.234845700000000051e+02
7.400000000000000000e+01,1.265088700000000017e+02
7.500000000000000000e+01,1.295504599999999868e+02
7.600000000000000000e+01,1.326086999999999989e+02
7.700000000000000000e+01,1.356823899999999981e+02
7.800000000000000000e+01,1.387698200000000099e+02
7.900000000000000000e+01,1.418704500000000053e+02
8.000000000000000000e+01,1.449830000000000041e+02
8.100000000000000000e+01,1.481062300000000107e+02
8.200000000000000000e+01,1.512390399999999886e+02
8.300000000000000000e+01,1.543806299999999965e+02
8.400000000000000000e+01,1.575298300000000040e+02
8.500000000000000000e+01,1.606856799999999907e+02
8.600000000000000000e+01,1.638472899999999868e+02
8.700000000000000000e+01,1.670135300000000029e+02
8.800000000000000000e+01,1.701835000000000093e+02
8.900000000000000000e+01,1.733561100000000010e+02
9.000000000000000000e+01,1.765307300000000055e+02
9.100000000000000000e+01,1.797060899999999890e+02
9.200000000000000000e+01,1.828816400000000044e+02
9.300000000000000000e+01,1.860561999999999898e+02
9.400000000000000000e+01,1.892289299999999912e+02
9.500000000000000000e+01,1.923992200000000139e+02
9.600000000000000000e+01,1.955662399999999934e+02
9.700000000000000000e+01,1.987291099999999915e+02
9.800000000000000000e+01,2.018869599999999878e+02
9.900000000000000000e+01,2.050389600000000030e+02
1.000000000000000000e+02,2.081841900000000010e+02
1.010000000000000000e+02,2.113215500000000020e+02
1.020000000000000000e+02,2.144509600000000091e+02
1.030000000000000000e+02,2.175712699999999984e+02
1.040000000000000000e+02,2.206815799999999967e+02
1.050000000000000000e+02,2.237808799999999962e+02
1.060000000000000000e+02,2.268688199999999995e+02
1.070000000000000000e+02,2.299446599999999989e+02
1.080000000000000000e+02,2.330074299999999994e+02
1.090000000000000000e+02,2.360562400000000025e+02
1.100000000000000000e+02,2.390906200000000013e+02
1.110000000000000000e+02,2.421097900000000038e+02
1.120000000000000000e+02,2.451130100000000027e+02
1.130000000000000000e+02,2.480994100000000060e+02
1.140000000000000000e+02,2.510685900000000004e+02
1.150000000000000000e+02,2.540195600000000127e+02
1.160000000000000000e+02,2.569523599999999988e+02
1.170000000000000000e+02,2.598675499999999943e+02
1.180000000000000000e+02,2.627647099999999796e+02
1.190000000000000000e+02,2.656422099999999773e+02
1.200000000000000000e+02,2.684980199999999968e+02
1.210000000000000000e+02,2.713297699999999963e+02
1.220000000000000000e+02,2.741354400000000169e+02
1.230000000000000000e+02,2.769132999999999925e+02
1.240000000000000000e+02,2.796614099999999894e+02
1.250000000000000000e+02,2.823779599999999732e+02
1.260000000000000000e+02,2.850608199999999783e+02
1.270000000000000000e+02,2.877077600000000075e+02
1.280000000000000000e+02,2.903167700000000195e+02
1.290000000000000000e+02,2.928853100000000040e+02
1.300000000000000000e+02,2.954109799999999950e+02
1.310000000000000000e+02,2.978910200000000259e+02
1.320000000000000000e+02,3.003224200000000224e+02
1.330000000000000000e+02,3.027024200000000178e+02
1.340000000000000000e+02,3.050282900000000268e+02
1.350000000000000000e+02,3.072973000000000070e+02
1.360000000000000000e+02,3.095064100000000167e+02
1.370000000000000000e+02,3.116535000000000082e+02
1.380000000000000000e+02,3.137358399999999961e+02
1.390000000000000000e+02,3.157514300000000276e+02
1.400000000000000000e+02,3.176986099999999738e+02
1.410000000000000000e+02,3.195759300000000280e+02
1.420000000000000000e+02,3.213826000000000249e+02
1.430000000000000000e+02,3.231181000000000267e+02
1.440000000000000000e+02,3.247828999999999837e+02
1.450000000000000000e+02,3.263777200000000107e+02
1.460000000000000000e+02,3.279042400000000157e+02
1.470000000000000000e+02,3.293645300000000020e+02
1.480000000000000000e+02,3.307612599999999929e+02
1.490000000000000000e+02,3.320975000000000250e+02
1.500000000000000000e+02,3.333771399999999971e+02
1.510000000000000000e+02,3.346043700000000172e+02
1.520000000000000000e+02,3.358376499999999965e+02
1.530000000000000000e+02,3.370164500000000203e+02
1.540000000000000000e+02,3.381530799999999886e+02
1.550000000000000000e+02,3.392466099999999756e+02
1.560000000000000000e+02,3.402983100000000150e+02
1.570000000000000000e+02,3.413169300000000135e+02
1.580000000000000000e+02,3.423120400000000245e+02
1.590000000000000000e+02,3.432918999999999983e+02
1.600000000000000000e+02,3.442619599999999878e+02
1.610000000000000000e+02,3.452275700000000143e+02
1.620000000000000000e+02,3.461920799999999758e+02
1.630000000000000000e+02,3.471596400000000244e+02
1.640000000000000000e+02,3.481334200000000010e+02
1.650000000000000000e+02,3.491163599999999860e+02
1.660000000000000000e+02,3.501114799999999718e+02
1.670000000000000000e+02,3.511209099999999808e+02
1.680000000000000000e+02,3.521481299999999806e+02
1.690000000000000000e+02,3.531951900000000251e+02
1.700000000000000000e+02,3.542646799999999985e+02
1.710000000000000000e+02,3.553586399999999799e+02
1.720000000000000000e+02,3.564801600000000121e+02
1.730000000000000000e+02,3.576317099999999982e+02
1.740000000000000000e+02,3.588160100000000057e+02
1.750000000000000000e+02,3.600361300000000142e+02
1.760000000000000000e+02,3.612940100000000143e+02
1.770000000000000000e+02,3.625933499999999867e+02
1.780000000000000000e+02,3.639381999999999948e+02
1.790000000000000000e+02,3.653314199999999801e+02
1.800000000000000000e+02,3.667769499999999994e+02
1.810000000000000000e+02,3.682803000000000111e+02
1.820000000000000000e+02,3.698456100000000220e+02
1.830000000000000000e+02,3.714782999999999902e+02
1.840000000000000000e+02,3.731855199999999968e+02
1.850000000000000000e+02,3.749722899999999868e+02
1.860000000000000000e+02,3.768470800000000054e+02
1.870000000000000000e+02,3.788190299999999979e+02
1.880000000000000000e+02,3.815076000000000249e+02
1.890000000000000000e+02,3.837986099999999965e+02
1.900000000000000000e+02,3.860833700000000022e+02
1.910000000000000000e+02,3.885347600000000057e+02
1.920000000000000000e+02,3.911619600000000219e+02
1.930000000000000000e+02,3.939806199999999876e+02
1.940000000000000000e+02,3.970041499999999814e+02
1.950000000000000000e+02,4.002475000000000023e+02
1.960000000000000000e+02,4.037323600000000283e+02
1.970000000000000000e+02,4.074750700000000165e+02
1.980000000000000000e+02,4.114979599999999778e+02
1.990000000000000000e+02,4.158104900000000157e+02
2.000000000000000000e+02,4.204227900000000204e+02
2.010000000000000000e+02,4.253239399999999932e+02
2.020000000000000000e+02,4.304890700000000265e+02
2.030000000000000000e+02,4.358710899999999810e+02
2.040000000000000000e+02,4.413963600000000156e+02
2.050000000000000000e+02,4.469791299999999978e+02
2.060000000000000000e+02,4.525347600000000057e+02
2.070000000000000000e+02,4.579903899999999908e+02
2.080000000000000000e+02,4.632985499999999774e+02
2.090000000000000000e+02,4.684345400000000268e+02
2.100000000000000000e+02,4.733916300000000206e+02
2.110000000000000000e+02,4.781705299999999852e+02
2.120000000000000000e+02,4.827849699999999871e+02
2.130000000000000000e+02,4.872665099999999825e+02
2.140000000000000000e+02,4.916289100000000190e+02
2.150000000000000000e+02,4.958869900000000257e+02
2.160000000000000000e+02,5.000500499999999988e+02
2.170000000000000000e+02,5.041244500000000244e+02
2.180000000000000000e+02,5.081178300000000263e+02
2.190000000000000000e+02,5.120360100000000330e+02
2.200000000000000000e+02,5.158828700000000254e+02
2.210000000000000000e+02,5.196631499999999733e+02
2.220000000000000000e+02,5.233798199999999952e+02
2.230000000000000000e+02,5.270366800000000467e+02
2.240000000000000000e+02,5.306368400000000065e+02
2.250000000000000000e+02,5.341823699999999917e+02
2.260000000000000000e+02,5.376754200000000310e+02
2.270000000000000000e+02,5.411184700000000021e+02
2.280000000000000000e+02,5.445130000000000337e+02
2.290000000000000000e+02,5.478607200000000148e+02
2.300000000000000000e+02,5.511644300000000385e+02
2.310000000000000000e+02,5.544243199999999661e+02
2.320000000000000000e+02,5.576424600000000282e+02
2.330000000000000000e+02,5.608199499999999489e+02
2.340000000000000000e+02,5.639580099999999447e+02
2.350000000000000000e+02,5.670576200000000426e+02
2.360000000000000000e+02,5.701192600000000539e+02
2.370000000000000000e+02,5.731445300000000316e+02
2.380000000000000000e+02,5.761339699999999766e+02
2.390000000000000000e+02,5.790890500000000429e+02
2.400000000000000000e+02,5.820101300000000037e+02
2.410000000000000000e+02,5.848973999999999478e+02
2.420000000000000000e+02,5.877522599999999784e+02
2.430000000000000000e+02,5.905752599999999575e+02
2.440000000000000000e+02,5.933668800000000374e+02
2.450000000000000000e+02,5.961275000000000546e+02
2.460000000000000000e+02,5.988579099999999471e+02
2.470000000000000000e+02,6.015585899999999810e+02
2.480000000000000000e+02,6.042302200000000312e+02
2.490000000000000000e+02,6.068726199999999835e+02
2.500000000000000000e+02,6.094868199999999661e+02
2.510000000000000000e+02,6.120731799999999794e+02
2.520000000000000000e+02,6.146317699999999604e+02
2.530000000000000000e+02,6.171631499999999733e+02
2.540000000000000000e+02,6.196674799999999550e+02
2.550000000000000000e+02,6.221455700000000206e+02
2.560000000000000000e+02,6.245974099999999680e+02
2.570000000000000000e+02,6.270234400000000505e+02
2.580000000000000000e+02,6.294240700000000288e+02
2.590000000000000000e+02,6.317993199999999661e+02
2.600000000000000000e+02,6.341495999999999640e+02
2.610000000000000000e+02,6.364754000000000360e+02
2.620000000000000000e+02,6.387766699999999673e+02
2.630000000000000000e+02,6.410542599999999993e+02
2.640000000000000000e+02,6.433080400000000054e+02
2.650000000000000000e+02,6.455376599999999598e+02
2.660000000000000000e+02,6.477443799999999783e+02
2.670000000000000000e+02,6.499276099999999587e+02
2.680000000000000000e+02,6.520885600000000295e+02
2.690000000000000000e+02,6.542264400000000251e+02
2.700000000000000000e+02,6.563419199999999591e+02
2.710000000000000000e+02,6.584355500000000347e+02
2.720000000000000000e+02,6.605072599999999738e+02
2.730000000000000000e+02,6.625570099999999911e+02
2.740000000000000000e+02,6.645851400000000240e+02
2.750000000000000000e+02,6.665920399999999972e+02
2.760000000000000000e+02,6.685779999999999745e+02
2.770000000000000000e+02,6.705428500000000440e+02
2.780000000000000000e+02,6.724870600000000422e+02
2.790000000000000000e+02,6.744108899999999949e+02
2.800000000000000000e+02,6.763145100000000411e+02
2.810000000000000000e+02,6.781976899999999659e+02
2.820000000000000000e+02,6.800609699999999975e+02
2.830000000000000000e+02,6.819049099999999726e+02
2.840000000000000000e+02,6.837289399999999659e+02
2.850000000000000000e+02,6.855338100000000168e+02
2.860000000000000000e+02,6.873193999999999733e+02
2.870000000000000000e+02,6.890858799999999746e+02
2.880000000000000000e+02,6.908338599999999587e+02
2.890000000000000000e+02,6.925629300000000512e+02
2.900000000000000000e+02,6.942736800000000130e+02
2.910000000000000000e+02,6.959660000000000082e+02
2.920000000000000000e+02,6.976402600000000120e+02
2.930000000000000000e+02,6.992965699999999742e+02
2.940000000000000000e+02,7.009350600000000213e+02
2.950000000000000000e+02,7.025559100000000399e+02
2.960000000000000000e+02,7.041593599999999924e+02
2.970000000000000000e+02,7.057456100000000561e+02
2.980000000000000000e+02,7.073147000000000162e+02
2.990000000000000000e+02,7.088668199999999615e+02
3.000000000000000000e+02,7.104022800000000188e+02
3.010000000000000000e+02,7.119210799999999608e+02
3.020000000000000000e+02,7.134235200000000532e+02
3.030000000000000000e+02,7.149094199999999546e+02
3.040000000000000000e+02,7.163792099999999436e+02
3.050000000000000000e+02,7.178333099999999831e+02
3.060000000000000000e+02,7.192712400000000343e+02
3.070000000000000000e+02,7.206935999999999467e+02
3.080000000000000000e+02,7.221005900000000111e+02
3.090000000000000000e+02,7.234918800000000374e+02
3.100000000000000000e+02,7.248681599999999889e+02
3.110000000000000000e+02,7.262292499999999791e+02
3.120000000000000000e+02,7.275755000000000337e+02
3.130000000000000000e+02,7.289069200000000137e+02
3.140000000000000000e+02,7.302236299999999574e+02
3.150000000000000000e+02,7.315259999999999536e+02
3.160000000000000000e+02,7.328140899999999647e+02
3.170000000000000000e+02,7.340878900000000158e+02
3.180000000000000000e+02,7.353476000000000568e+02
3.190000000000000000e+02,7.365933199999999488e+02
3.200000000000000000e+02,7.378253200000000334e+02
3.210000000000000000e+02,7.390436999999999443e+02
3.220000000000000000e+02,7.402484699999999975e+02
3.230000000000000000e+02,7.414398800000000165e+02
3.240000000000000000e+02,7.426181000000000267e+02
3.250000000000000000e+02,7.437832600000000411e+02
3.260000000000000000e+02,7.449353599999999460e+02
3.270000000000000000e+02,7.460746500000000196e+02
3.280000000000000000e+02,7.472012300000000096e+02
3.290000000000000000e+02,7.483151199999999790e+02
3.300000000000000000e+02,7.494166900000000169e+02
3.310000000000000000e+02,7.505059199999999464e+02
3.320000000000000000e+02,7.515829499999999825e+02
3.330000000000000000e+02,7.526478299999999990e+02
3.340000000000000000e+02,7.537009299999999712e+02
3.350000000000000000e+02,7.547420700000000124e+02
3.360000000000000000e+02,7.557714799999999968e+02
3.370000000000000000e+02,7.567893100000000004e+02
3.380000000000000000e+02,7.577956500000000233e+02
3.390000000000000000e+02,7.587906500000000278e+02
3.400000000000000000e+02,7.597744099999999889e+02
3.410000000000000000e+02,7.607470100000000457e+02
3.420000000000000000e+02,7.617086799999999585e+02
3.430000000000000000e+02,7.626593599999999924e+02
3.440000000000000000e+02,7.635994299999999839e+02
3.450000000000000000e+02,7.645287499999999454e+02
3.460000000000000000e+02,7.654475700000000415e+02
3.470000000000000000e+02,7.663560199999999440e+02
3.480000000000000000e+02,7.672540299999999434e+02
3.490000000000000000e+02,7.681417800000000398e+02
3.500000000000000000e+02,7.690195300000000316e+02
3.510000000000000000e+02,7.698873899999999821e+02
3.520000000000000000e+02,7.707451200000000426e+02
3.530000000000000000e+02,7.715931399999999485e+02
3.540000000000000000e+02,7.724314000000000533e+02
3.550000000000000000e+02,7.732601300000000037e+02
3.560000000000000000e+02,7.740793499999999767e+02
3.570000000000000000e+02,7.748892200000000230e+02
3.580000000000000000e+02,7.756898800000000165e+02
3.590000000000000000e+02,7.764812600000000202e+02
3.600000000000000000e+02,7.772636700000000474e+02
3.610000000000000000e+02,7.780370500000000220e+02
3.620000000000000000e+02,7.788015699999999697e+02
3.630000000000000000e+02,7.795573100000000295e+02
3.640000000000000000e+02,7.803043199999999615e+02
3.650000000000000000e+02,7.810426599999999553e+02
3.660000000000000000e+02,7.817725199999999859e+02
3.670000000000000000e+02,7.824940199999999777e+02
3.680000000000000000e+02,7.832071499999999560e+02
3.690000000000000000e+02,7.839121099999999842e+02
3.700000000000000000e+02,7.846088899999999740e+02
3.710000000000000000e+02,7.852976099999999633e+02
3.720000000000000000e+02,7.859783300000000281e+02
3.730000000000000000e+02,7.866512500000000045e+02
3.740000000000000000e+02,7.873162800000000061e+02
3.750000000000000000e+02,7.879736299999999574e+02
3.760000000000000000e+02,7.886234100000000353e+02
3.770000000000000000e+02,7.892655600000000504e+02
3.780000000000000000e+02,7.899003300000000536e+02
3.790000000000000000e+02,7.905276499999999942e+02
3.800000000000000000e+02,7.911477700000000368e+02
3.810000000000000000e+02,7.917606200000000172e+02
3.820000000000000000e+02,7.923663299999999481e+02
3.830000000000000000e+02,7.929650900000000320e+02
3.840000000000000000e+02,7.935566999999999780e+02
3.850000000000000000e+02,7.941416000000000395e+02
3.860000000000000000e+02,7.947194799999999759e+02
3.870000000000000000e+02,7.952907099999999900e+02
3.880000000000000000e+02,7.958552899999999681e+02
3.890000000000000000e+02,7.964132100000000491e+02
3.900000000000000000e+02,7.969647200000000566e+02
3.910000000000000000e+02,7.975096399999999903e+02
3.920000000000000000e+02,7.980482200000000148e+02
3.930000000000000000e+02,7.985805699999999661e+02
3.940000000000000000e+02,7.991066299999999956e+02
3.950000000000000000e+02,7.996265300000000025e+02
3.960000000000000000e+02,8.001403199999999742e+02
3.970000000000000000e+02,8.006480699999999615e+02
3.980000000000000000e+02,8.011499000000000024e+02
3.990000000000000000e+02,8.016458099999999831e+02
4.000000000000000000e+02,8.021359899999999925e+02
4.010000000000000000e+02,8.026203000000000429e+02
4.020000000000000000e+02,8.030989399999999705e+02
4.030000000000000000e+02,8.035719000000000278e+02
4.040000000000000000e+02,8.040393699999999626e+02
4.050000000000000000e+02,8.045013400000000274e+02
4.060000000000000000e+02,8.049578199999999697e+02
4.070000000000000000e+02,8.054089999999999918e+02
4.080000000000000000e+02,8.058547999999999547e+02
4.090000000000000000e+02,8.062952900000000227e+02
4.100000000000000000e+02,8.067306499999999687e+02
4.110000000000000000e+02,8.071608300000000327e+02
4.120000000000000000e+02,8.075859400000000505e+02
4.130000000000000000e+02,8.080059800000000223e+02
4.140000000000000000e+02,8.084211400000000367e+02
4.150000000000000000e+02,8.088313600000000179e+02
4.160000000000000000e+02,8.092366899999999532e+02
4.170000000000000000e+02,8.096372699999999440e+02
4.180000000000000000e+02,8.100330800000000409e+02
4.190000000000000000e+02,8.104241899999999532e+02
4.200000000000000000e+02,8.108106699999999591e+02
4.210000000000000000e+02,8.111925700000000461e+02
4.220000000000000000e+02,8.115700100000000248e+02
4.230000000000000000e+02,8.119429300000000467e+02
4.240000000000000000e+02,8.123114000000000487e+02
4.250000000000000000e+02,8.126755399999999554e+02
4.260000000000000000e+02,8.130352799999999434e+02
4.270000000000000000e+02,8.133908099999999877e+02
4.280000000000000000e+02,8.137421299999999746e+02
4.290000000000000000e+02,8.140892900000000054e+02
4.300000000000000000e+02,8.144322499999999536e+02
4.310000000000000000e+02,8.147711199999999963e+02
4.320000000000000000e+02,8.151059599999999818e+02
4.330000000000000000e+02,8.154368899999999485e+02
4.340000000000000000e+02,8.157638500000000477e+02
4.350000000000000000e+02,8.160869099999999889e+02
4.360000000000000000e+02,8.164061299999999619e+02
4.370000000000000000e+02,8.167214999999999918e+02
4.380000000000000000e+02,8.170331999999999653e+02
4.390000000000000000e+02,8.173411300000000210e+02
4.400000000000000000e+02,8.176453900000000203e+02
4.410000000000000000e+02,8.179459799999999632e+02
4.420000000000000000e+02,8.182430399999999509e+02
4.430000000000000000e+02,8.185365600000000086e+02
4.440000000000000000e+02,8.188265400000000227e+02
4.450000000000000000e+02,8.191130399999999554e+02
4.460000000000000000e+02,8.193961799999999585e+02
4.470000000000000000e+02,8.196758999999999560e+02
4.480000000000000000e+02,8.199522699999999986e+02
4.490000000000000000e+02,8.202253399999999601e+02
4.500000000000000000e+02,8.204951200000000426e+02
4.510000000000000000e+02,8.207617199999999684e+02
4.520000000000000000e+02,8.210250899999999774e+02
4.530000000000000000e+02,8.212853400000000192e+02
4.540000000000000000e+02,8.215424799999999550e+02
4.550000000000000000e+02,8.217965100000000120e+02
4.560000000000000000e+02,8.220474900000000389e+02
4.570000000000000000e+02,8.222954700000000230e+02
4.580000000000000000e+02,8.225405299999999897e+02
4.590000000000000000e+02,8.227825900000000274e+02
4.600000000000000000e+02,8.230217300000000478e+02
4.610000000000000000e+02,8.232580600000000004e+02
4.620000000000000000e+02,8.234915200000000368e+02
4.630000000000000000e+02,8.237222299999999677e+02
4.640000000000000000e+02,8.239501299999999446e+02
4.650000000000000000e+02,8.241752900000000182e+02
4.660000000000000000e+02,8.243977700000000368e+02
4.670000000000000000e+02,8.246175500000000511e+02
4.680000000000000000e+02,8.248347199999999475e+02
4.690000000000000000e+02,8.250492600000000039e+02
4.700000000000000000e+02,8.252612299999999550e+02
4.710000000000000000e+02,8.254706400000000031e+02
4.720000000000000000e+02,8.256775499999999965e+02
4.730000000000000000e+02,8.258819600000000491e+02
4.740000000000000000e+02,8.260839200000000346e+02
4.750000000000000000e+02,8.262834500000000162e+02
4.760000000000000000e+02,8.264805900000000065e+02
4.770000000000000000e+02,8.266752900000000182e+02
4.780000000000000000e+02,8.268677400000000262e+02
4.790000000000000000e+02,8.270578000000000429e+02
4.800000000000000000e+02,8.272456100000000561e+02
4.810000000000000000e+02,8.274311500000000024e+02
4.820000000000000000e+02,8.276145000000000209e+02
4.830000000000000000e+02,8.277955899999999474e+02
4.840000000000000000e+02,8.279744899999999461e+02
4.850000000000000000e+02,8.281512500000000045e+02
4.860000000000000000e+02,8.283259299999999712e+02
4.870000000000000000e+02,8.284984100000000353e+02
4.880000000000000000e+02,8.286688199999999824e+02
4.890000000000000000e+02,8.288372799999999643e+02
4.900000000000000000e+02,8.290036000000000058e+02
4.910000000000000000e+02,8.291679699999999684e+02
4.920000000000000000e+02,8.293303200000000288e+02
4.930000000000000000e+02,8.294907799999999725e+02
4.940000000000000000e+02,8.296492299999999886e+02
4.950000000000000000e+02,8.298057900000000018e+02
4.960000000000000000e+02,8.299604500000000371e+02
4.970000000000000000e+02,8.301132800000000316e+02
4.980000000000000000e+02,8.302642200000000230e+02
4.990000000000000000e+02,8.304133900000000494e+02
5.000000000000000000e+02,8.305606699999999591e+02
5.010000000000000000e+02,8.307062399999999798e+02
5.020000000000000000e+02,8.308500400000000354e+02
5.030000000000000000e+02,8.309921299999999746e+02
5.040000000000000000e+02,8.311324499999999489e+02
5.050000000000000000e+02,8.312710600000000341e+02
5.060000000000000000e+02,8.314080199999999650e+02
5.070000000000000000e+02,8.315434000000000196e+02
5.080000000000000000e+02,8.316770599999999831e+02
5.090000000000000000e+02,8.318090799999999945e+02
5.100000000000000000e+02,8.319395799999999781e+02
5.110000000000000000e+02,8.320684199999999464e+02
5.120000000000000000e+02,8.321957400000000007e+02
5.130000000000000000e+02,8.323215300000000525e+02
5.140000000000000000e+02,8.324457999999999629e+02
5.150000000000000000e+02,8.325685399999999845e+02
5.160000000000000000e+02,8.326898200000000543e+02
5.170000000000000000e+02,8.328096299999999701e+02
5.180000000000000000e+02,8.329279800000000478e+02
5.190000000000000000e+02,8.330449200000000474e+02
5.200000000000000000e+02,8.331603999999999814e+02
5.210000000000000000e+02,8.332745400000000018e+02
5.220000000000000000e+02,8.333872699999999440e+02
5.230000000000000000e+02,8.334986000000000104e+02
5.240000000000000000e+02,8.336085799999999608e+02
5.250000000000000000e+02,8.337172900000000482e+02
5.260000000000000000e+02,8.338246500000000196e+02
5.270000000000000000e+02,8.339307300000000396e+02
5.280000000000000000e+02,8.340354599999999436e+02
5.290000000000000000e+02,8.341389799999999468e+02
5.300000000000000000e+02,8.342412100000000237e+02
5.310000000000000000e+02,8.343422199999999975e+02
5.320000000000000000e+02,8.344420199999999568e+02
5.330000000000000000e+02,8.345405899999999519e+02
5.340000000000000000e+02,8.346379399999999578e+02
5.350000000000000000e+02,8.347341300000000501e+02
5.360000000000000000e+02,8.348291600000000017e+02
5.370000000000000000e+02,8.349230300000000398e+02
5.380000000000000000e+02,8.350157500000000255e+02
5.390000000000000000e+02,8.351073599999999715e+02
5.400000000000000000e+02,8.351978800000000547e+02
5.410000000000000000e+02,8.352872899999999845e+02
5.420000000000000000e+02,8.353756100000000515e+02
5.430000000000000000e+02,8.354628300000000536e+02
5.440000000000000000e+02,8.355490099999999529e+02
5.450000000000000000e+02,8.356341599999999517e+02
5.460000000000000000e+02,8.357182599999999866e+02
5.470000000000000000e+02,8.358013300000000072e+02
5.480000000000000000e+02,8.358834200000000010e+02
5.490000000000000000e+02,8.359644799999999805e+02
5.500000000000000000e+02,8.360446200000000090e+02
5.510000000000000000e+02,8.361237200000000485e+02
5.520000000000000000e+02,8.362018399999999474e+02
5.530000000000000000e+02,8.362791099999999460e+02
5.540000000000000000e+02,8.363553500000000440e+02
5.550000000000000000e+02,8.364307300000000396e+02
5.560000000000000000e+02,8.365051300000000083e+02
5.570000000000000000e+02,8.365786699999999882e+02
5.580000000000000000e+02,8.366513099999999667e+02
5.590000000000000000e+02,8.367230200000000195e+02
5.600000000000000000e+02,8.367938799999999446e+02
5.610000000000000000e+02,8.368638899999999694e+02
5.620000000000000000e+02,8.369331100000000561e+02
5.630000000000000000e+02,8.370013999999999896e+02
5.640000000000000000e+02,8.370689099999999598e+02
5.650000000000000000e+02,8.371355600000000550e+02
5.660000000000000000e+02,8.372014199999999846e+02
5.670000000000000000e+02,8.372664800000000014e+02
5.680000000000000000e+02,8.373307499999999663e+02
5.690000000000000000e+02,8.373942299999999932e+02
5.700000000000000000e+02,8.374569699999999557e+02
5.710000000000000000e+02,8.375189199999999801e+02
5.720000000000000000e+02,8.375801400000000285e+02
5.730000000000000000e+02,8.376405600000000504e+02
5.740000000000000000e+02,8.377003200000000334e+02
5.750000000000000000e+02,8.377592799999999897e+02
5.760000000000000000e+02,8.378175700000000461e+02
5.770000000000000000e+02,8.378751200000000381e+02
5.780000000000000000e+02,8.379320099999999911e+02
5.790000000000000000e+02,8.379881599999999935e+02
5.800000000000000000e+02,8.380436399999999821e+02
5.810000000000000000e+02,8.380984499999999571e+02
5.820000000000000000e+02,8.381525900000000320e+02
5.830000000000000000e+02,8.382061200000000554e+02
5.840000000000000000e+02,8.382589100000000144e+02
5.850000000000000000e+02,8.383111599999999726e+02
5.860000000000000000e+02,8.383626699999999801e+02
5.870000000000000000e+02,8.384136399999999867e+02
5.880000000000000000e+02,8.384639300000000048e+02
5.890000000000000000e+02,8.385136099999999715e+02
5.900000000000000000e+02,8.385627399999999625e+02
5.910000000000000000e+02,8.386112100000000282e+02
5.920000000000000000e+02,8.386591200000000299e+02
5.930000000000000000e+02,8.387064800000000560e+02
5.940000000000000000e+02,8.387531699999999546e+02
5.950000000000000000e+02,8.387993800000000419e+02
5.960000000000000000e+02,8.388449699999999893e+02
5.970000000000000000e+02,8.388900099999999611e+02
5.980000000000000000e+02,8.389345100000000457e+02
5.990000000000000000e+02,8.389785200000000032e+02