# Time [s], Temperature [C]
1.000000000000000000e+00,2.500000000000000000e+01
2.000000000000000000e+00,2.500000000000000000e+01
3.000000000000000000e+00,2.500000000000000000e+01
4.000000000000000000e+00,2.500000000000000000e+01
5.000000000000000000e+00,2.500000199999999850e+01
6.000000000000000000e+00,2.500000599999999906e+01
7.000000000000000000e+00,2.500002500000000083e+01
8.000000000000000000e+00,2.500008199999999903e+01
9.000000000000000000e+00,2.500024000000000157e+01
1.000000000000000000e+01,2.500061399999999878e+01
1.100000000000000000e+01,2.500139199999999917e+01
1.200000000000000000e+01,2.500286300000000139e+01
1.300000000000000000e+01,2.500541700000000134e+01
1.400000000000000000e+01,2.500953700000000168e+01
1.500000000000000000e+01,2.501579299999999861e+01
1.600000000000000000e+01,2.502482200000000034e+01
1.700000000000000000e+01,2.503729200000000077e+01
1.800000000000000000e+01,2.505389600000000172e+01
1.900000000000000000e+01,2.507531900000000036e+01
2.000000000000000000e+01,2.510222399999999965e+01
2.100000000000000000e+01,2.513523899999999855e+01
2.200000000000000000e+01,2.517494599999999849e+01
2.300000000000000000e+01,2.522187600000000174e+01
2.400000000000000000e+01,2.527650300000000172e+01
2.500000000000000000e+01,2.533924299999999974e+01
2.600000000000000000e+01,2.541045400000000143e+01
2.700000000000000000e+01,2.549043700000000001e+01
2.800000000000000000e+01,2.557943500000000014e+01
2.900000000000000000e+01,2.567764700000000033e+01
3.000000000000000000e+01,2.578522099999999995e+01
3.100000000000000000e+01,2.590226200000000034e+01
3.200000000000000000e+01,2.602883100000000027e+01
3.300000000000000000e+01,2.616495700000000113e+01
3.400000000000000000e+01,2.631063800000000086e+01
3.500000000000000000e+01,2.646583599999999947e+01
3.600000000000000000e+01,2.663049499999999981e+01
3.700000000000000000e+01,2.680452899999999872e+01
3.800000000000000000e+01,2.698783699999999897e+01
3.900000000000000000e+01,2.718030200000000107e+01
4.000000000000000000e+01,2.738178600000000174e+01
4.100000000000000000e+01,2.759214599999999962e+01
4.200000000000000000e+01,2.781121800000000022e+01
4.300000000000000000e+01,2.803884299999999996e+01
4.400000000000000000e+01,2.827484899999999968e+01
4.500000000000000000e+01,2.851904499999999842e+01
4.600000000000000000e+01,2.877125699999999853e+01
4.700000000000000000e+01,2.903130000000000166e+01
4.800000000000000000e+01,2.929896700000000109e+01
4.900000000000000000e+01,2.957408699999999868e+01
5.000000000000000000e+01,2.985646600000000106e+01
5.100000000000000000e+01,3.014590300000000056e+01
5.200000000000000000e+01,3.044220699999999979e+01
5.300000000000000000e+01,3.074519199999999941e+01
5.400000000000000000e+01,3.105467000000000155e+01
5.500000000000000000e+01,3.137044900000000069e+01
5.600000000000000000e+01,3.169235400000000169e+01
5.700000000000000000e+01,3.202019500000000107e+01
5.800000000000000000e+01,3.235379400000000061e+01
5.900000000000000000e+01,3.269297799999999654e+01
6.000000000000000000e+01,3.303755999999999915e+01
6.100000000000000000e+01,3.338738299999999981e+01
6.200000000000000000e+01,3.374228300000000047e+01
6.300000000000000000e+01,3.410209300000000354e+01
6.400000000000000000e+01,3.446665600000000040e+01
6.500000000000000000e+01,3.483581199999999711e+01
6.600000000000000000e+01,3.520940399999999926e+01
6.700000000000000000e+01,3.558728800000000092e+01
6.800000000000000000e+01,3.596931500000000170e+01
6.900000000000000000e+01,3.635534700000000186e+01
7.000000000000000000e+01,3.674524300000000210e+01
7.100000000000000000e+01,3.713886999999999716e+01
7.200000000000000000e+01,3.753609500000000310e+01
7.300000000000000000e+01,3.793679399999999902e+01
7.400000000000000000e+01,3.834083600000000303e+01
7.500000000000000000e+01,3.874810399999999788e+01
7.600000000000000000e+01,3.915847800000000234e+01
7.700000000000000000e+01,3.957184999999999775e+01
7.800000000000000000e+01,3.998810199999999782e+01
7.900000000000000000e+01,4.040713099999999969e+01
8.000000000000000000e+01,4.082882699999999687e+01
8.100000000000000000e+01,4.125308600000000325e+01
8.200000000000000000e+01,4.167981300000000289e+01
8.300000000000000000e+01,4.210891000000000162e+01
8.400000000000000000e+01,4.254028300000000229e+01
8.500000000000000000e+01,4.297383500000000112e+01
8.600000000000000000e+01,4.340948499999999655e+01
8.700000000000000000e+01,4.384715299999999871e+01
8.800000000000000000e+01,4.428673899999999719e+01
8.900000000000000000e+01,4.472817599999999771e+01
9.000000000000000000e+01,4.517137499999999761e+01
9.100000000000000000e+01,4.561626400000000103e+01
9.200000000000000000e+01,4.606276299999999679e+01
9.300000000000000000e+01,4.651080699999999979e+01
9.400000000000000000e+01,4.696032000000000295e+01
9.500000000000000000e+01,4.741123600000000238e+01
9.600000000000000000e+01,4.786350600000000099e+01
9.700000000000000000e+01,4.831705500000000342e+01
9.800000000000000000e+01,4.877181199999999706e+01
9.900000000000000000e+01,4.922771800000000297e+01
1.000000000000000000e+02,4.968471499999999708e+01
1.010000000000000000e+02,5.014274600000000248e+01
1.020000000000000000e+02,5.060176500000000033e+01
1.030000000000000000e+02,5.106173700000000082e+01
1.040000000000000000e+02,5.152258299999999736e+01
1.050000000000000000e+02,5.198424500000000137e+01
1.060000000000000000e+02,5.244668599999999969e+01
1.070000000000000000e+02,5.290985899999999731e+01
1.080000000000000000e+02,5.337371799999999666e+01
1.090000000000000000e+02,5.383823000000000292e+01
1.100000000000000000e+02,5.430335999999999785e+01
1.110000000000000000e+02,5.476903200000000282e+01
1.120000000000000000e+02,5.523521800000000326e+01
1.130000000000000000e+02,5.570188100000000020e+01
1.140000000000000000e+02,5.616899099999999834e+01
1.150000000000000000e+02,5.663651300000000077e+01
1.160000000000000000e+02,5.710441600000000051e+01
1.170000000000000000e+02,5.757263199999999870e+01
1.180000000000000000e+02,5.804114899999999722e+01
1.190000000000000000e+02,5.850992999999999711e+01
1.200000000000000000e+02,5.897895400000000166e+01
1.210000000000000000e+02,5.944819600000000293e+01
1.220000000000000000e+02,5.991762200000000149e+01
1.230000000000000000e+02,6.038718000000000075e+01
1.240000000000000000e+02,6.085685300000000097e+01
1.250000000000000000e+02,6.132662200000000041e+01
1.260000000000000000e+02,6.179645899999999870e+01
1.270000000000000000e+02,6.226635699999999929e+01
1.280000000000000000e+02,6.273627100000000212e+01
1.290000000000000000e+02,6.320616100000000159e+01
1.300000000000000000e+02,6.367602200000000323e+01
1.310000000000000000e+02,6.414583600000000274e+01
1.320000000000000000e+02,6.461557799999999929e+01
1.330000000000000000e+02,6.508524300000000551e+01
1.340000000000000000e+02,6.555477899999999636e+01
1.350000000000000000e+02,6.602417800000000625e+01
1.360000000000000000e+02,6.649342300000000705e+01
1.370000000000000000e+02,6.696249400000000662e+01
1.380000000000000000e+02,6.743138100000000179e+01
1.390000000000000000e+02,6.790008500000000424e+01
1.400000000000000000e+02,6.836854599999999493e+01
1.410000000000000000e+02,6.883676099999999565e+01
1.420000000000000000e+02,6.930471799999999405e+01
1.430000000000000000e+02,6.977240799999999865e+01
1.440000000000000000e+02,7.023982200000000375e+01
1.450000000000000000e+02,7.070695499999999356e+01
1.460000000000000000e+02,7.117374399999999923e+01
1.470000000000000000e+02,7.164021300000000281e+01
1.480000000000000000e+02,7.210633099999999729e+01
1.490000000000000000e+02,7.257209799999999689e+01
1.500000000000000000e+02,7.303750599999999338e+01
1.510000000000000000e+02,7.350256299999999499e+01
1.520000000000000000e+02,7.396720899999999688e+01
1.530000000000000000e+02,7.443144999999999811e+01
1.540000000000000000e+02,7.489527900000000216e+01
1.550000000000000000e+02,7.535868800000000078e+01
1.560000000000000000e+02,7.582167800000000568e+01
1.570000000000000000e+02,7.628424099999999441e+01
1.580000000000000000e+02,7.674634600000000262e+01
1.590000000000000000e+02,7.720799300000000187e+01
1.600000000000000000e+02,7.766915899999999340e+01
1.610000000000000000e+02,7.812984500000000310e+01
1.620000000000000000e+02,7.859005000000000507e+01
1.630000000000000000e+02,7.904976700000000278e+01
1.640000000000000000e+02,7.950901000000000352e+01
1.650000000000000000e+02,7.996772799999999393e+01
1.660000000000000000e+02,8.042593399999999804e+01
1.670000000000000000e+02,8.088360600000000034e+01
1.680000000000000000e+02,8.134075199999999484e+01
1.690000000000000000e+02,8.179735599999999351e+01
1.700000000000000000e+02,8.225344099999999514e+01
1.710000000000000000e+02,8.270897700000000441e+01
1.720000000000000000e+02,8.316395599999999888e+01
1.730000000000000000e+02,8.361836999999999875e+01
1.740000000000000000e+02,8.407222000000000151e+01
1.750000000000000000e+02,8.452549700000000144e+01
1.760000000000000000e+02,8.497819499999999948e+01
1.770000000000000000e+02,8.543032100000000639e+01
1.780000000000000000e+02,8.588186600000000226e+01
1.790000000000000000e+02,8.633282499999999970e+01
1.800000000000000000e+02,8.678318799999999555e+01
1.810000000000000000e+02,8.723295600000000150e+01
1.820000000000000000e+02,8.768211399999999855e+01
1.830000000000000000e+02,8.813066100000000347e+01
1.840000000000000000e+02,8.857860599999999351e+01
1.850000000000000000e+02,8.902593199999999740e+01
1.860000000000000000e+02,8.947264900000000409e+01
1.870000000000000000e+02,8.991874699999999621e+01
1.880000000000000000e+02,9.036421199999999487e+01
1.890000000000000000e+02,9.080905900000000486e+01
1.900000000000000000e+02,9.125326499999999896e+01
1.910000000000000000e+02,9.169683799999999962e+01
1.920000000000000000e+02,9.213977800000000684e+01
1.930000000000000000e+02,9.258207699999999818e+01
1.940000000000000000e+02,9.302372699999999384e+01
1.950000000000000000e+02,9.346474499999999352e+01
1.960000000000000000e+02,9.390511300000000006e+01
1.970000000000000000e+02,9.434483299999999417e+01
1.980000000000000000e+02,9.478389699999999607e+01
1.990000000000000000e+02,9.522230500000000575e+01
2.000000000000000000e+02,9.566004900000000077e+01
2.010000000000000000e+02,9.609714499999999759e+01
2.020000000000000000e+02,9.653357699999999397e+01
2.030000000000000000e+02,9.696934500000000412e+01
2.040000000000000000e+02,9.740444200000000308e+01
2.050000000000000000e+02,9.783888199999999813e+01
2.060000000000000000e+02,9.827265900000000443e+01
2.070000000000000000e+02,9.870576499999999953e+01
2.080000000000000000e+02,9.913819900000000018e+01
2.090000000000000000e+02,9.956996200000000385e+01
2.100000000000000000e+02,1.000010500000000064e+02
2.110000000000000000e+02,1.004314700000000045e+02
2.120000000000000000e+02,1.008611999999999966e+02
2.130000000000000000e+02,1.012902600000000035e+02
2.140000000000000000e+02,1.017186399999999935e+02
2.150000000000000000e+02,1.021463399999999950e+02
2.160000000000000000e+02,1.025733500000000049e+02
2.170000000000000000e+02,1.029996900000000011e+02
2.180000000000000000e+02,1.034253400000000056e+02
2.190000000000000000e+02,1.038503199999999964e+02
2.200000000000000000e+02,1.042746000000000066e+02
2.210000000000000000e+02,1.046981999999999999e+02
2.220000000000000000e+02,1.051211100000000016e+02
2.230000000000000000e+02,1.055433299999999974e+02
2.240000000000000000e+02,1.059648700000000048e+02
2.250000000000000000e+02,1.063857200000000063e+02
2.260000000000000000e+02,1.068058800000000019e+02
2.270000000000000000e+02,1.072253400000000028e+02
2.280000000000000000e+02,1.076441300000000041e+02
2.290000000000000000e+02,1.080622099999999932e+02
2.300000000000000000e+02,1.084796099999999939e+02
2.310000000000000000e+02,1.088963099999999997e+02
2.320000000000000000e+02,1.093123199999999997e+02
2.330000000000000000e+02,1.097276399999999938e+02
2.340000000000000000e+02,1.101422699999999963e+02
2.350000000000000000e+02,1.105561900000000009e+02
2.360000000000000000e+02,1.109694400000000059e+02
2.370000000000000000e+02,1.113819799999999987e+02
2.380000000000000000e+02,1.117938299999999998e+02
2.390000000000000000e+02,1.122049899999999951e+02
2.400000000000000000e+02,1.126154599999999988e+02
2.410000000000000000e+02,1.130252299999999934e+02
2.420000000000000000e+02,1.134343099999999964e+02
2.430000000000000000e+02,1.138426900000000046e+02
2.440000000000000000e+02,1.142503899999999959e+02
2.450000000000000000e+02,1.146573800000000034e+02
2.460000000000000000e+02,1.150636800000000051e+02
2.470000000000000000e+02,1.154692799999999977e+02
2.480000000000000000e+02,1.158741899999999987e+02
2.490000000000000000e+02,1.162784000000000049e+02
2.500000000000000000e+02,1.166819200000000052e+02
2.510000000000000000e+02,1.170847299999999933e+02
2.520000000000000000e+02,1.174868500000000040e+02
2.530000000000000000e+02,1.178882799999999946e+02
2.540000000000000000e+02,1.182890199999999936e+02
2.550000000000000000e+02,1.186890599999999978e+02
2.560000000000000000e+02,1.190883999999999929e+02
2.570000000000000000e+02,1.194870499999999964e+02
2.580000000000000000e+02,1.198850099999999941e+02
2.590000000000000000e+02,1.202822699999999969e+02
2.600000000000000000e+02,1.206788399999999939e+02
2.610000000000000000e+02,1.210747199999999992e+02
2.620000000000000000e+02,1.214698999999999955e+02
2.630000000000000000e+02,1.218644000000000034e+02
2.640000000000000000e+02,1.222582000000000022e+02
2.650000000000000000e+02,1.226513099999999952e+02
2.660000000000000000e+02,1.230437199999999933e+02
2.670000000000000000e+02,1.234354500000000030e+02
2.680000000000000000e+02,1.238264800000000037e+02
2.690000000000000000e+02,1.242168199999999985e+02
2.700000000000000000e+02,1.246064700000000016e+02
2.710000000000000000e+02,1.249954299999999989e+02
2.720000000000000000e+02,1.253837000000000046e+02
2.730000000000000000e+02,1.257712800000000044e+02
2.740000000000000000e+02,1.261581599999999952e+02
2.750000000000000000e+02,1.265443599999999975e+02
2.760000000000000000e+02,1.269298799999999972e+02
2.770000000000000000e+02,1.273147000000000020e+02
2.780000000000000000e+02,1.276988400000000041e+02
2.790000000000000000e+02,1.280822900000000004e+02
2.800000000000000000e+02,1.284650599999999940e+02
2.810000000000000000e+02,1.288471199999999897e+02
2.820000000000000000e+02,1.292285200000000032e+02
2.830000000000000000e+02,1.296092199999999934e+02
2.840000000000000000e+02,1.299892399999999952e+02
2.850000000000000000e+02,1.303685800000000086e+02
2.860000000000000000e+02,1.307472099999999955e+02
2.870000000000000000e+02,1.311251699999999971e+02
2.880000000000000000e+02,1.315024400000000071e+02
2.890000000000000000e+02,1.318790400000000034e+02
2.900000000000000000e+02,1.322549600000000112e+02
2.910000000000000000e+02,1.326301899999999989e+02
2.920000000000000000e+02,1.330047299999999950e+02
2.930000000000000000e+02,1.333786000000000058e+02
2.940000000000000000e+02,1.337517899999999997e+02
2.950000000000000000e+02,1.341243000000000052e+02
2.960000000000000000e+02,1.344961399999999969e+02
2.970000000000000000e+02,1.348672899999999970e+02
2.980000000000000000e+02,1.352377600000000086e+02
2.990000000000000000e+02,1.356075600000000065e+02
3.000000000000000000e+02,1.359766700000000128e+02
3.010000000000000000e+02,1.363451100000000054e+02
3.020000000000000000e+02,1.367128800000000126e+02
3.030000000000000000e+02,1.370799700000000030e+02
3.040000000000000000e+02,1.374463800000000049e+02
3.050000000000000000e+02,1.378121199999999931e+02
3.060000000000000000e+02,1.381771899999999960e+02
3.070000000000000000e+02,1.385415800000000104e+02
3.080000000000000000e+02,1.389053000000000111e+02
3.090000000000000000e+02,1.392683399999999949e+02
3.100000000000000000e+02,1.396307199999999966e+02
3.110000000000000000e+02,1.399924300000000130e+02
3.120000000000000000e+02,1.403534699999999873e+02
3.130000000000000000e+02,1.407138400000000047e+02
3.140000000000000000e+02,1.410735300000000052e+02
3.150000000000000000e+02,1.414325599999999952e+02
3.160000000000000000e+02,1.417909099999999967e+02
3.170000000000000000e+02,1.421486099999999908e+02
3.180000000000000000e+02,1.425056299999999965e+02
3.190000000000000000e+02,1.428619799999999884e+02
3.200000000000000000e+02,1.432176800000000014e+02
3.210000000000000000e+02,1.435727100000000007e+02
3.220000000000000000e+02,1.439270799999999895e+02
3.230000000000000000e+02,1.442807899999999961e+02
3.240000000000000000e+02,1.446338199999999858e+02
3.250000000000000000e+02,1.449861899999999935e+02
3.260000000000000000e+02,1.453379099999999937e+02
3.270000000000000000e+02,1.456889600000000087e+02
3.280000000000000000e+02,1.460393699999999910e+02
3.290000000000000000e+02,1.463891000000000133e+02
3.300000000000000000e+02,1.467381699999999967e+02
3.310000000000000000e+02,1.470865900000000011e+02
3.320000000000000000e+02,1.474343399999999917e+02
3.330000000000000000e+02,1.477814500000000066e+02
3.340000000000000000e+02,1.481279000000000110e+02
3.350000000000000000e+02,1.484736900000000048e+02
3.360000000000000000e+02,1.488188299999999913e+02
3.370000000000000000e+02,1.491632999999999925e+02
3.380000000000000000e+02,1.495071399999999926e+02
3.390000000000000000e+02,1.498503100000000074e+02
3.400000000000000000e+02,1.501928299999999865e+02
3.410000000000000000e+02,1.505346999999999866e+02
3.420000000000000000e+02,1.508759200000000078e+02
3.430000000000000000e+02,1.512164899999999932e+02
3.440000000000000000e+02,1.515563999999999965e+02
3.450000000000000000e+02,1.518956799999999987e+02
3.460000000000000000e+02,1.522342800000000125e+02
3.470000000000000000e+02,1.525722700000000032e+02
3.480000000000000000e+02,1.529095900000000086e+02
3.490000000000000000e+02,1.532462800000000129e+02
3.500000000000000000e+02,1.535823100000000068e+02
3.510000000000000000e+02,1.539177099999999996e+02
3.520000000000000000e+02,1.542524400000000071e+02
3.530000000000000000e+02,1.545865499999999884e+02
3.540000000000000000e+02,1.549199999999999875e+02
3.550000000000000000e+02,1.552528200000000140e+02
3.560000000000000000e+02,1.555850100000000111e+02
3.570000000000000000e+02,1.559165299999999945e+02
3.580000000000000000e+02,1.562474400000000117e+02
3.590000000000000000e+02,1.565776799999999866e+02
3.600000000000000000e+02,1.569072999999999922e+02
3.610000000000000000e+02,1.572363000000000000e+02
3.620000000000000000e+02,1.575646399999999971e+02
3.630000000000000000e+02,1.578923299999999870e+02
3.640000000000000000e+02,1.582194100000000105e+02
3.650000000000000000e+02,1.585458399999999983e+02
3.660000000000000000e+02,1.588716400000000135e+02
3.670000000000000000e+02,1.591968099999999993e+02
3.680000000000000000e+02,1.595213500000000124e+02
3.690000000000000000e+02,1.598452499999999930e+02
3.700000000000000000e+02,1.601685200000000009e+02
3.710000000000000000e+02,1.604911700000000110e+02
3.720000000000000000e+02,1.608131700000000137e+02
3.730000000000000000e+02,1.611345499999999902e+02
3.740000000000000000e+02,1.614553099999999972e+02
3.750000000000000000e+02,1.617754400000000032e+02
3.760000000000000000e+02,1.620949200000000019e+02
3.770000000000000000e+02,1.624138000000000090e+02
3.780000000000000000e+02,1.627320400000000120e+02
3.790000000000000000e+02,1.630496699999999919e+02
3.800000000000000000e+02,1.633666499999999928e+02
3.810000000000000000e+02,1.636830300000000022e+02
3.820000000000000000e+02,1.639987800000000107e+02
3.830000000000000000e+02,1.643138999999999896e+02
3.840000000000000000e+02,1.646283999999999992e+02
3.850000000000000000e+02,1.649422900000000141e+02
3.860000000000000000e+02,1.652555700000000058e+02
3.870000000000000000e+02,1.655682099999999934e+02
3.880000000000000000e+02,1.658802300000000116e+02
3.890000000000000000e+02,1.661916500000000099e+02
3.900000000000000000e+02,1.665024400000000071e+02
3.910000000000000000e+02,1.668126200000000097e+02
3.920000000000000000e+02,1.671221799999999860e+02
3.930000000000000000e+02,1.674311199999999928e+02
3.940000000000000000e+02,1.677394600000000082e+02
3.950000000000000000e+02,1.680471599999999910e+02
3.960000000000000000e+02,1.683542799999999886e+02
3.970000000000000000e+02,1.686607700000000136e+02
3.980000000000000000e+02,1.689666400000000124e+02
3.990000000000000000e+02,1.692719299999999976e+02
4.000000000000000000e+02,1.695765800000000070e+02
4.010000000000000000e+02,1.698806299999999965e+02
4.020000000000000000e+02,1.701840799999999945e+02
4.030000000000000000e+02,1.704869099999999946e+02
4.040000000000000000e+02,1.707891400000000033e+02
4.050000000000000000e+02,1.710907599999999888e+02
4.060000000000000000e+02,1.713917800000000113e+02
4.070000000000000000e+02,1.716921800000000076e+02
4.080000000000000000e+02,1.719919899999999870e+02
4.090000000000000000e+02,1.722912000000000035e+02
4.100000000000000000e+02,1.725897999999999968e+02
4.110000000000000000e+02,1.728877999999999986e+02
4.120000000000000000e+02,1.731852000000000089e+02
4.130000000000000000e+02,1.734820100000000025e+02
4.140000000000000000e+02,1.737781999999999982e+02
4.150000000000000000e+02,1.740738100000000088e+02
4.160000000000000000e+02,1.743687999999999931e+02
4.170000000000000000e+02,1.746632099999999923e+02
4.180000000000000000e+02,1.749570200000000000e+02
4.190000000000000000e+02,1.752502299999999877e+02
4.200000000000000000e+02,1.755428499999999872e+02
4.210000000000000000e+02,1.758348699999999951e+02
4.220000000000000000e+02,1.761262999999999863e+02
4.230000000000000000e+02,1.764171299999999860e+02
4.240000000000000000e+02,1.767073699999999974e+02
4.250000000000000000e+02,1.769970199999999920e+02
4.260000000000000000e+02,1.772860900000000015e+02
4.270000000000000000e+02,1.775745499999999879e+02
4.280000000000000000e+02,1.778624399999999923e+02
4.290000000000000000e+02,1.781497300000000052e+02
4.300000000000000000e+02,1.784364300000000014e+02
4.310000000000000000e+02,1.787225500000000125e+02
4.320000000000000000e+02,1.790080900000000099e+02
4.330000000000000000e+02,1.792930299999999875e+02
4.340000000000000000e+02,1.795773800000000051e+02
4.350000000000000000e+02,1.798611600000000124e+02
4.360000000000000000e+02,1.801443500000000029e+02
4.370000000000000000e+02,1.804269600000000082e+02
4.380000000000000000e+02,1.807089799999999968e+02
4.390000000000000000e+02,1.809904300000000035e+02
4.400000000000000000e+02,1.812712899999999934e+02
4.410000000000000000e+02,1.815515699999999981e+02
4.420000000000000000e+02,1.818312799999999925e+02
4.430000000000000000e+02,1.821104100000000017e+02
4.440000000000000000e+02,1.823889599999999973e+02
4.450000000000000000e+02,1.826669500000000141e+02
4.460000000000000000e+02,1.829443400000000111e+02
4.470000000000000000e+02,1.832211599999999976e+02
4.480000000000000000e+02,1.834974100000000021e+02
4.490000000000000000e+02,1.837730899999999963e+02
4.500000000000000000e+02,1.840481900000000053e+02
4.510000000000000000e+02,1.843227100000000007e+02
4.520000000000000000e+02,1.845966600000000142e+02
4.530000000000000000e+02,1.848700599999999952e+02
4.540000000000000000e+02,1.851428699999999878e+02
4.550000000000000000e+02,1.854151200000000017e+02
4.560000000000000000e+02,1.856867799999999988e+02
4.570000000000000000e+02,1.859578899999999919e+02
4.580000000000000000e+02,1.862284199999999998e+02
4.590000000000000000e+02,1.864984000000000037e+02
4.600000000000000000e+02,1.867678099999999972e+02
4.610000000000000000e+02,1.870366699999999867e+02
4.620000000000000000e+02,1.873049300000000130e+02
4.630000000000000000e+02,1.875726500000000101e+02
4.640000000000000000e+02,1.878398099999999999e+02
4.650000000000000000e+02,1.881064000000000078e+02
4.660000000000000000e+02,1.883724200000000053e+02
4.670000000000000000e+02,1.886378899999999987e+02
4.680000000000000000e+02,1.889028000000000134e+02
4.690000000000000000e+02,1.891671599999999955e+02
4.700000000000000000e+02,1.894309499999999957e+02
4.710000000000000000e+02,1.896941799999999887e+02
4.720000000000000000e+02,1.899568600000000060e+02
4.730000000000000000e+02,1.902189799999999877e+02
4.740000000000000000e+02,1.904805499999999938e+02
4.750000000000000000e+02,1.907415599999999927e+02
4.760000000000000000e+02,1.910020100000000127e+02
4.770000000000000000e+02,1.912619300000000067e+02
4.780000000000000000e+02,1.915212899999999934e+02
4.790000000000000000e+02,1.917800799999999981e+02
4.800000000000000000e+02,1.920383300000000020e+02
4.810000000000000000e+02,1.922960400000000050e+02
4.820000000000000000e+02,1.925531799999999976e+02
4.830000000000000000e+02,1.928097799999999893e+02
4.840000000000000000e+02,1.930658400000000086e+02
4.850000000000000000e+02,1.933213499999999954e+02
4.860000000000000000e+02,1.935763100000000065e+02
4.870000000000000000e+02,1.938307299999999884e+02
4.880000000000000000e+02,1.940846099999999979e+02
4.890000000000000000e+02,1.943379400000000032e+02
4.900000000000000000e+02,1.945907100000000014e+02
4.910000000000000000e+02,1.948429600000000050e+02
4.920000000000000000e+02,1.950946700000000078e+02
4.930000000000000000e+02,1.953458300000000065e+02
4.940000000000000000e+02,1.955964500000000044e+02
4.950000000000000000e+02,1.958465300000000013e+02
4.960000000000000000e+02,1.960960699999999974e+02
4.970000000000000000e+02,1.963450799999999958e+02
4.980000000000000000e+02,1.965935499999999934e+02
4.990000000000000000e+02,1.968414799999999900e+02
5.000000000000000000e+02,1.970888799999999890e+02
5.010000000000000000e+02,1.973357399999999870e+02
5.020000000000000000e+02,1.975820799999999906e+02
5.030000000000000000e+02,1.978278699999999901e+02
5.040000000000000000e+02,1.980731399999999951e+02
5.050000000000000000e+02,1.983178699999999992e+02
5.060000000000000000e+02,1.985620700000000056e+02
5.070000000000000000e+02,1.988057399999999859e+02
5.080000000000000000e+02,1.990488900000000001e+02
5.090000000000000000e+02,1.992915000000000134e+02
5.100000000000000000e+02,1.995335800000000006e+02
5.110000000000000000e+02,1.997751499999999965e+02
5.120000000000000000e+02,2.000161899999999946e+02
5.130000000000000000e+02,2.002566999999999950e+02
5.140000000000000000e+02,2.004966900000000010e+02
5.150000000000000000e+02,2.007361500000000092e+02
5.160000000000000000e+02,2.009750799999999913e+02
5.170000000000000000e+02,2.012135000000000105e+02
5.180000000000000000e+02,2.014514200000000130e+02
5.190000000000000000e+02,2.016887800000000084e+02
5.200000000000000000e+02,2.019256399999999871e+02
5.210000000000000000e+02,2.021619900000000030e+02
5.220000000000000000e+02,2.023977999999999895e+02
5.230000000000000000e+02,2.026331199999999910e+02
5.240000000000000000e+02,2.028678999999999917e+02
5.250000000000000000e+02,2.031021700000000010e+02
5.260000000000000000e+02,2.033359199999999873e+02
5.270000000000000000e+02,2.035691700000000139e+02
5.280000000000000000e+02,2.038019099999999924e+02
5.290000000000000000e+02,2.040341200000000015e+02
5.300000000000000000e+02,2.042658399999999972e+02
5.310000000000000000e+02,2.044970199999999920e+02
5.320000000000000000e+02,2.047277200000000050e+02
5.330000000000000000e+02,2.049578999999999951e+02
5.340000000000000000e+02,2.051875799999999970e+02
5.350000000000000000e+02,2.054167300000000012e+02
5.360000000000000000e+02,2.056453899999999919e+02
5.370000000000000000e+02,2.058735499999999945e+02
5.380000000000000000e+02,2.061012000000000057e+02
5.390000000000000000e+02,2.063283399999999972e+02
5.400000000000000000e+02,2.065549800000000005e+02
5.410000000000000000e+02,2.067811100000000124e+02
5.420000000000000000e+02,2.070067400000000077e+02
5.430000000000000000e+02,2.072318899999999928e+02
5.440000000000000000e+02,2.074565299999999866e+02
5.450000000000000000e+02,2.076806599999999889e+02
5.460000000000000000e+02,2.079043100000000095e+02
5.470000000000000000e+02,2.081274400000000071e+02
5.480000000000000000e+02,2.083500999999999976e+02
5.490000000000000000e+02,2.085722499999999968e+02
5.500000000000000000e+02,2.087939000000000078e+02
5.510000000000000000e+02,2.090150600000000054e+02
5.520000000000000000e+02,2.092357299999999896e+02
5.530000000000000000e+02,2.094559199999999919e+02
5.540000000000000000e+02,2.096756000000000029e+02
5.550000000000000000e+02,2.098947900000000004e+02
5.560000000000000000e+02,2.101134900000000130e+02
5.570000000000000000e+02,2.103317099999999868e+02
5.580000000000000000e+02,2.105494400000000041e+02
5.590000000000000000e+02,2.107666900000000112e+02
5.600000000000000000e+02,2.109834400000000016e+02
5.610000000000000000e+02,2.111997100000000103e+02
5.620000000000000000e+02,2.114155000000000086e+02
5.630000000000000000e+02,2.116307999999999936e+02
5.640000000000000000e+02,2.118456299999999999e+02
5.650000000000000000e+02,2.120599499999999864e+02
5.660000000000000000e+02,2.122738200000000006e+02
5.670000000000000000e+02,2.124871799999999951e+02
5.680000000000000000e+02,2.127000899999999888e+02
5.690000000000000000e+02,2.129124899999999911e+02
5.700000000000000000e+02,2.131244399999999928e+02
5.710000000000000000e+02,2.133358900000000062e+02
5.720000000000000000e+02,2.135468899999999906e+02
5.730000000000000000e+02,2.137573999999999899e+02
5.740000000000000000e+02,2.139674400000000105e+02
5.750000000000000000e+02,2.141769899999999893e+02
5.760000000000000000e+02,2.143860799999999927e+02
5.770000000000000000e+02,2.145946999999999889e+02
5.780000000000000000e+02,2.148028400000000033e+02
5.790000000000000000e+02,2.150105299999999886e+02
5.800000000000000000e+02,2.152177299999999889e+02
5.810000000000000000e+02,2.154244700000000137e+02
5.820000000000000000e+02,2.156307400000000030e+02
5.830000000000000000e+02,2.158365499999999884e+02
5.840000000000000000e+02,2.160418899999999951e+02
5.850000000000000000e+02,2.162467699999999979e+02
5.860000000000000000e+02,2.164511699999999905e+02
5.870000000000000000e+02,2.166551200000000108e+02
5.880000000000000000e+02,2.168585999999999956e+02
5.890000000000000000e+02,2.170616100000000017e+02
5.900000000000000000e+02,2.172641800000000103e+02
5.910000000000000000e+02,2.174662800000000118e+02
5.920000000000000000e+02,2.176679200000000094e+02
5.930000000000000000e+02,2.178691100000000063e+02
5.940000000000000000e+02,2.180698399999999992e+02
5.950000000000000000e+02,2.182701099999999883e+02
5.960000000000000000e+02,2.184699200000000019e+02
5.970000000000000000e+02,2.186692799999999863e+02
5.980000000000000000e+02,2.188681899999999985e+02
5.990000000000000000e+02,2.190666500000000099e+02