# Time [s], Mass [Kg]
1.000000000000000000e+00,1.000000000000000000e+00
2.000000000000000000e+00,1.000000000000000000e+00
3.000000000000000000e+00,1.000000000000000000e+00
4.000000000000000000e+00,1.000000000000000000e+00
5.000000000000000000e+00,1.000000000000000000e+00
6.000000000000000000e+00,1.000000000000000000e+00
7.000000000000000000e+00,9.999999400000000316e-01
8.000000000000000000e+00,9.999993999999999827e-01
9.000000000000000000e+00,9.999972599999999989e-01
1.000000000000000000e+01,9.999889699999999770e-01
1.100000000000000000e+01,9.999621499999999941e-01
1.200000000000000000e+01,9.998888999999999694e-01
1.300000000000000000e+01,9.997166400000000452e-01
1.400000000000000000e+01,9.993624700000000027e-01
1.500000000000000000e+01,9.987246400000000524e-01
1.600000000000000000e+01,9.977244699999999744e-01
1.700000000000000000e+01,9.963520799999999733e-01
1.800000000000000000e+01,9.946597799999999934e-01
1.900000000000000000e+01,9.927299600000000224e-01
2.000000000000000000e+01,9.906373000000000539e-01
2.100000000000000000e+01,9.884368799999999622e-01
2.200000000000000000e+01,9.861920499999999867e-01
2.300000000000000000e+01,9.839437599999999451e-01
2.400000000000000000e+01,9.817150799999999622e-01
2.500000000000000000e+01,9.795368300000000250e-01
2.600000000000000000e+01,9.774114499999999595e-01
2.700000000000000000e+01,9.753178999999999599e-01
2.800000000000000000e+01,9.732314300000000085e-01
2.900000000000000000e+01,9.711157700000000448e-01
3.000000000000000000e+01,9.689370999999999956e-01
3.100000000000000000e+01,9.666869599999999840e-01
3.200000000000000000e+01,9.643808000000000380e-01
3.300000000000000000e+01,9.620494200000000440e-01
3.400000000000000000e+01,9.597296699999999792e-01
3.500000000000000000e+01,9.574518199999999535e-01
3.600000000000000000e+01,9.552311300000000394e-01
3.700000000000000000e+01,9.530663499999999511e-01
3.800000000000000000e+01,9.509417399999999798e-01
3.900000000000000000e+01,9.488329899999999872e-01
4.000000000000000000e+01,9.467145799999999722e-01
4.100000000000000000e+01,9.445695299999999905e-01
4.200000000000000000e+01,9.423925300000000060e-01
4.300000000000000000e+01,9.401919800000000382e-01
4.400000000000000000e+01,9.379843500000000223e-01
4.500000000000000000e+01,9.357894700000000121e-01
4.600000000000000000e+01,9.336237299999999850e-01
4.700000000000000000e+01,9.314953700000000447e-01
4.800000000000000000e+01,9.294039600000000290e-01
4.900000000000000000e+01,9.273403900000000144e-01
5.000000000000000000e+01,9.252909999999999746e-01
5.100000000000000000e+01,9.232417299999999827e-01
5.200000000000000000e+01,9.211822699999999697e-01
5.300000000000000000e+01,9.191089900000000146e-01
5.400000000000000000e+01,9.170252700000000035e-01
5.500000000000000000e+01,9.149387500000000228e-01
5.600000000000000000e+01,9.128597999999999990e-01
5.700000000000000000e+01,9.107973000000000319e-01
5.800000000000000000e+01,9.087569699999999973e-01
5.900000000000000000e+01,9.067401899999999459e-01
6.000000000000000000e+01,9.047425999999999524e-01
6.100000000000000000e+01,9.027575899999999987e-01
6.200000000000000000e+01,9.004749100000000173e-01
6.300000000000000000e+01,8.983445199999999797e-01
6.400000000000000000e+01,8.962451799999999746e-01
6.500000000000000000e+01,8.941714200000000501e-01
6.600000000000000000e+01,8.921188100000000398e-01
6.700000000000000000e+01,8.900873099999999649e-01
6.800000000000000000e+01,8.880788099999999963e-01
6.900000000000000000e+01,8.860933800000000415e-01
7.000000000000000000e+01,8.841285100000000341e-01
7.100000000000000000e+01,8.821793199999999890e-01
7.200000000000000000e+01,8.802392500000000286e-01
7.300000000000000000e+01,8.783019800000000377e-01
7.400000000000000000e+01,8.763616100000000131e-01
7.500000000000000000e+01,8.744151599999999691e-01
7.600000000000000000e+01,8.724613199999999846e-01
7.700000000000000000e+01,8.705019999999999980e-01
7.800000000000000000e+01,8.685400500000000079e-01
7.900000000000000000e+01,8.665787000000000351e-01
8.000000000000000000e+01,8.646212199999999681e-01
8.100000000000000000e+01,8.626687499999999842e-01
8.200000000000000000e+01,8.607217099999999732e-01
8.300000000000000000e+01,8.587780600000000097e-01
8.400000000000000000e+01,8.568354799999999827e-01
8.500000000000000000e+01,8.548909399999999881e-01
8.600000000000000000e+01,8.529418699999999909e-01
8.700000000000000000e+01,8.509860599999999886e-01
8.800000000000000000e+01,8.490231000000000305e-01
8.900000000000000000e+01,8.470537099999999597e-01
9.000000000000000000e+01,8.450790599999999930e-01
9.100000000000000000e+01,8.431008500000000128e-01
9.200000000000000000e+01,8.411207200000000439e-01
9.300000000000000000e+01,8.391393999999999798e-01
9.400000000000000000e+01,8.371566499999999467e-01
9.500000000000000000e+01,8.351716999999999613e-01
9.600000000000000000e+01,8.331831100000000045e-01
9.700000000000000000e+01,8.311887999999999499e-01
9.800000000000000000e+01,8.291869200000000495e-01
9.900000000000000000e+01,8.271763899999999836e-01
1.000000000000000000e+02,8.251564500000000413e-01
1.010000000000000000e+02,8.231270899999999502e-01
1.020000000000000000e+02,8.210887900000000128e-01
1.030000000000000000e+02,8.190421500000000243e-01
1.040000000000000000e+02,8.169877500000000126e-01
1.050000000000000000e+02,8.149259699999999995e-01
1.060000000000000000e+02,8.128563199999999656e-01
1.070000000000000000e+02,8.107780199999999882e-01
1.080000000000000000e+02,8.086900700000000386e-01
1.090000000000000000e+02,8.065909100000000498e-01
1.100000000000000000e+02,8.044795399999999930e-01
1.110000000000000000e+02,8.023549300000000217e-01
1.120000000000000000e+02,8.002163799999999494e-01
1.130000000000000000e+02,7.978658100000000086e-01
1.140000000000000000e+02,7.955965400000000187e-01
1.150000000000000000e+02,7.933574300000000301e-01
1.160000000000000000e+02,7.911294100000000329e-01
1.170000000000000000e+02,7.889025800000000199e-01
1.180000000000000000e+02,7.866702100000000364e-01
1.190000000000000000e+02,7.844272899999999993e-01
1.200000000000000000e+02,7.821702999999999850e-01
1.210000000000000000e+02,7.798962000000000394e-01
1.220000000000000000e+02,7.776026099999999719e-01
1.230000000000000000e+02,7.752878100000000217e-01
1.240000000000000000e+02,7.729502900000000398e-01
1.250000000000000000e+02,7.705892899999999823e-01
1.260000000000000000e+02,7.682039099999999898e-01
1.270000000000000000e+02,7.657935599999999843e-01
1.280000000000000000e+02,7.633573999999999637e-01
1.290000000000000000e+02,7.608943599999999918e-01
1.300000000000000000e+02,7.584034800000000187e-01
1.310000000000000000e+02,7.558836899999999970e-01
1.320000000000000000e+02,7.533338099999999926e-01
1.330000000000000000e+02,7.507530500000000329e-01
1.340000000000000000e+02,7.481407500000000210e-01
1.350000000000000000e+02,7.454962699999999609e-01
1.360000000000000000e+02,7.428191899999999626e-01
1.370000000000000000e+02,7.401093800000000389e-01
1.380000000000000000e+02,7.373672700000000191e-01
1.390000000000000000e+02,7.345930299999999802e-01
1.400000000000000000e+02,7.317874399999999557e-01
1.410000000000000000e+02,7.289510399999999946e-01
1.420000000000000000e+02,7.260848300000000144e-01
1.430000000000000000e+02,7.231900700000000182e-01
1.440000000000000000e+02,7.202685500000000074e-01
1.450000000000000000e+02,7.173219899999999649e-01
1.460000000000000000e+02,7.143526100000000545e-01
1.470000000000000000e+02,7.113628400000000518e-01
1.480000000000000000e+02,7.083551900000000234e-01
1.490000000000000000e+02,7.053324600000000499e-01
1.500000000000000000e+02,7.022976300000000061e-01
1.510000000000000000e+02,6.992533199999999560e-01
1.520000000000000000e+02,6.962023999999999990e-01
1.530000000000000000e+02,6.929855900000000402e-01
1.540000000000000000e+02,6.898289300000000068e-01
1.550000000000000000e+02,6.867096400000000100e-01
1.560000000000000000e+02,6.836173500000000125e-01
1.570000000000000000e+02,6.805466999999999489e-01
1.580000000000000000e+02,6.774948800000000215e-01
1.590000000000000000e+02,6.744608300000000112e-01
1.600000000000000000e+02,6.714440000000000408e-01
1.610000000000000000e+02,6.684446299999999841e-01
1.620000000000000000e+02,6.654631500000000033e-01
1.630000000000000000e+02,6.625001400000000151e-01
1.640000000000000000e+02,6.595563899999999924e-01
1.650000000000000000e+02,6.566327199999999475e-01
1.660000000000000000e+02,6.537300299999999620e-01
1.670000000000000000e+02,6.508491600000000377e-01
1.680000000000000000e+02,6.479911799999999999e-01
1.690000000000000000e+02,6.451569799999999910e-01
1.700000000000000000e+02,6.423475699999999788e-01
1.710000000000000000e+02,6.395639800000000319e-01
1.720000000000000000e+02,6.368072000000000177e-01
1.730000000000000000e+02,6.340783199999999731e-01
1.740000000000000000e+02,6.313786500000000412e-01
1.750000000000000000e+02,6.287093799999999844e-01
1.760000000000000000e+02,6.260718699999999748e-01
1.770000000000000000e+02,6.234675600000000317e-01
1.780000000000000000e+02,6.208980699999999686e-01
1.790000000000000000e+02,6.183649900000000033e-01
1.800000000000000000e+02,6.158703599999999501e-01
1.810000000000000000e+02,6.134160199999999508e-01
1.820000000000000000e+02,6.110041699999999576e-01
1.830000000000000000e+02,6.086372700000000080e-01
1.840000000000000000e+02,6.063178799999999757e-01
1.850000000000000000e+02,6.040487300000000337e-01
1.860000000000000000e+02,6.018328699999999643e-01
1.870000000000000000e+02,5.996736299999999575e-01
1.880000000000000000e+02,5.975744699999999687e-01
1.890000000000000000e+02,5.955392099999999855e-01
1.900000000000000000e+02,5.935071100000000044e-01
1.910000000000000000e+02,5.915709700000000293e-01
1.920000000000000000e+02,5.897285899999999970e-01
1.930000000000000000e+02,5.879802100000000031e-01
1.940000000000000000e+02,5.863273700000000144e-01
1.950000000000000000e+02,5.847725900000000365e-01
1.960000000000000000e+02,5.833188900000000343e-01
1.970000000000000000e+02,5.819696800000000447e-01
1.980000000000000000e+02,5.807281699999999880e-01
1.990000000000000000e+02,5.795973500000000111e-01
2.000000000000000000e+02,5.785791300000000525e-01
2.010000000000000000e+02,5.776745100000000299e-01
2.020000000000000000e+02,5.768828999999999763e-01
2.030000000000000000e+02,5.762018599999999546e-01
2.040000000000000000e+02,5.756270300000000395e-01
2.050000000000000000e+02,5.751519200000000387e-01
2.060000000000000000e+02,5.747680699999999643e-01
2.070000000000000000e+02,5.744655699999999809e-01
2.080000000000000000e+02,5.742333499999999757e-01
2.090000000000000000e+02,5.740599600000000358e-01
2.100000000000000000e+02,5.739342600000000294e-01
2.110000000000000000e+02,5.738459200000000093e-01
2.120000000000000000e+02,5.737860200000000077e-01
2.130000000000000000e+02,5.737468599999999697e-01
2.140000000000000000e+02,5.737225400000000031e-01
2.150000000000000000e+02,5.737081800000000120e-01
2.160000000000000000e+02,5.737003699999999595e-01
2.170000000000000000e+02,5.736964900000000034e-01
2.180000000000000000e+02,5.736948800000000181e-01
2.190000000000000000e+02,5.736942900000000511e-01
2.200000000000000000e+02,5.736941700000000033e-01
2.210000000000000000e+02,5.736941700000000033e-01
2.220000000000000000e+02,5.736941700000000033e-01
2.230000000000000000e+02,5.736941700000000033e-01
2.240000000000000000e+02,5.736941700000000033e-01
2.250000000000000000e+02,5.736941700000000033e-01
2.260000000000000000e+02,5.736941700000000033e-01
2.270000000000000000e+02,5.736941700000000033e-01
2.280000000000000000e+02,5.736941700000000033e-01
2.290000000000000000e+02,5.736941700000000033e-01
2.300000000000000000e+02,5.736941700000000033e-01
2.310000000000000000e+02,5.736941700000000033e-01
2.320000000000000000e+02,5.736941700000000033e-01
2.330000000000000000e+02,5.736941700000000033e-01
2.340000000000000000e+02,5.736941700000000033e-01
2.350000000000000000e+02,5.736941700000000033e-01
2.360000000000000000e+02,5.736941700000000033e-01
2.370000000000000000e+02,5.736941700000000033e-01
2.380000000000000000e+02,5.736941700000000033e-01
2.390000000000000000e+02,5.736941700000000033e-01
2.400000000000000000e+02,5.736941700000000033e-01
2.410000000000000000e+02,5.736941700000000033e-01
2.420000000000000000e+02,5.736941700000000033e-01
2.430000000000000000e+02,5.736941700000000033e-01
2.440000000000000000e+02,5.736941700000000033e-01
2.450000000000000000e+02,5.736941700000000033e-01
2.460000000000000000e+02,5.736941700000000033e-01
2.470000000000000000e+02,5.736941700000000033e-01
2.480000000000000000e+02,5.736941700000000033e-01
2.490000000000000000e+02,5.736941700000000033e-01
2.500000000000000000e+02,5.736941700000000033e-01
2.510000000000000000e+02,5.736941700000000033e-01
2.520000000000000000e+02,5.736941700000000033e-01
2.530000000000000000e+02,5.736941700000000033e-01
2.540000000000000000e+02,5.736941700000000033e-01
2.550000000000000000e+02,5.736941700000000033e-01
2.560000000000000000e+02,5.736941700000000033e-01
2.570000000000000000e+02,5.736941700000000033e-01
2.580000000000000000e+02,5.736941700000000033e-01
2.590000000000000000e+02,5.736941700000000033e-01
2.600000000000000000e+02,5.736941700000000033e-01
2.610000000000000000e+02,5.736941700000000033e-01
2.620000000000000000e+02,5.736941700000000033e-01
2.630000000000000000e+02,5.736941700000000033e-01
2.640000000000000000e+02,5.736941700000000033e-01
2.650000000000000000e+02,5.736941700000000033e-01
2.660000000000000000e+02,5.736941700000000033e-01
2.670000000000000000e+02,5.736941700000000033e-01
2.680000000000000000e+02,5.736941700000000033e-01
2.690000000000000000e+02,5.736941700000000033e-01
2.700000000000000000e+02,5.736941700000000033e-01
2.710000000000000000e+02,5.736941700000000033e-01
2.720000000000000000e+02,5.736941700000000033e-01
2.730000000000000000e+02,5.736941700000000033e-01
2.740000000000000000e+02,5.736941700000000033e-01
2.750000000000000000e+02,5.736941700000000033e-01
2.760000000000000000e+02,5.736941700000000033e-01
2.770000000000000000e+02,5.736941700000000033e-01
2.780000000000000000e+02,5.736941700000000033e-01
2.790000000000000000e+02,5.736941700000000033e-01
2.800000000000000000e+02,5.736941700000000033e-01
2.810000000000000000e+02,5.736941700000000033e-01
2.820000000000000000e+02,5.736941700000000033e-01
2.830000000000000000e+02,5.736941700000000033e-01
2.840000000000000000e+02,5.736941700000000033e-01
2.850000000000000000e+02,5.736941700000000033e-01
2.860000000000000000e+02,5.736941700000000033e-01
2.870000000000000000e+02,5.736941700000000033e-01
2.880000000000000000e+02,5.736941700000000033e-01
2.890000000000000000e+02,5.736941700000000033e-01
2.900000000000000000e+02,5.736941700000000033e-01
2.910000000000000000e+02,5.736941700000000033e-01
2.920000000000000000e+02,5.736941700000000033e-01
2.930000000000000000e+02,5.736941700000000033e-01
2.940000000000000000e+02,5.736941700000000033e-01
2.950000000000000000e+02,5.736941700000000033e-01
2.960000000000000000e+02,5.736941700000000033e-01
2.970000000000000000e+02,5.736941700000000033e-01
2.980000000000000000e+02,5.736941700000000033e-01
2.990000000000000000e+02,5.736941700000000033e-01
3.000000000000000000e+02,5.736941700000000033e-01
3.010000000000000000e+02,5.736941700000000033e-01
3.020000000000000000e+02,5.736941700000000033e-01
3.030000000000000000e+02,5.736941700000000033e-01
3.040000000000000000e+02,5.736941700000000033e-01
3.050000000000000000e+02,5.736941700000000033e-01
3.060000000000000000e+02,5.736941700000000033e-01
3.070000000000000000e+02,5.736941700000000033e-01
3.080000000000000000e+02,5.736941700000000033e-01
3.090000000000000000e+02,5.736941700000000033e-01
3.100000000000000000e+02,5.736941700000000033e-01
3.110000000000000000e+02,5.736941700000000033e-01
3.120000000000000000e+02,5.736941700000000033e-01
3.130000000000000000e+02,5.736941700000000033e-01
3.140000000000000000e+02,5.736941700000000033e-01
3.150000000000000000e+02,5.736941700000000033e-01
3.160000000000000000e+02,5.736941700000000033e-01
3.170000000000000000e+02,5.736941700000000033e-01
3.180000000000000000e+02,5.736941700000000033e-01
3.190000000000000000e+02,5.736941700000000033e-01
3.200000000000000000e+02,5.736941700000000033e-01
3.210000000000000000e+02,5.736941700000000033e-01
3.220000000000000000e+02,5.736941700000000033e-01
3.230000000000000000e+02,5.736941700000000033e-01
3.240000000000000000e+02,5.736941700000000033e-01
3.250000000000000000e+02,5.736941700000000033e-01
3.260000000000000000e+02,5.736941700000000033e-01
3.270000000000000000e+02,5.736941700000000033e-01
3.280000000000000000e+02,5.736941700000000033e-01
3.290000000000000000e+02,5.736941700000000033e-01
3.300000000000000000e+02,5.736941700000000033e-01
3.310000000000000000e+02,5.736941700000000033e-01
3.320000000000000000e+02,5.736941700000000033e-01
3.330000000000000000e+02,5.736941700000000033e-01
3.340000000000000000e+02,5.736941700000000033e-01
3.350000000000000000e+02,5.736941700000000033e-01
3.360000000000000000e+02,5.736941700000000033e-01
3.370000000000000000e+02,5.736941700000000033e-01
3.380000000000000000e+02,5.736941700000000033e-01
3.390000000000000000e+02,5.736941700000000033e-01
3.400000000000000000e+02,5.736941700000000033e-01
3.410000000000000000e+02,5.736941700000000033e-01
3.420000000000000000e+02,5.736941700000000033e-01
3.430000000000000000e+02,5.736941700000000033e-01
3.440000000000000000e+02,5.736941700000000033e-01
3.450000000000000000e+02,5.736941700000000033e-01
3.460000000000000000e+02,5.736941700000000033e-01
3.470000000000000000e+02,5.736941700000000033e-01
3.480000000000000000e+02,5.736941700000000033e-01
3.490000000000000000e+02,5.736941700000000033e-01
3.500000000000000000e+02,5.736941700000000033e-01
3.510000000000000000e+02,5.736941700000000033e-01
3.520000000000000000e+02,5.736941700000000033e-01
3.530000000000000000e+02,5.736941700000000033e-01
3.540000000000000000e+02,5.736941700000000033e-01
3.550000000000000000e+02,5.736941700000000033e-01
3.560000000000000000e+02,5.736941700000000033e-01
3.570000000000000000e+02,5.736941700000000033e-01
3.580000000000000000e+02,5.736941700000000033e-01
3.590000000000000000e+02,5.736941700000000033e-01
3.600000000000000000e+02,5.736941700000000033e-01
3.610000000000000000e+02,5.736941700000000033e-01
3.620000000000000000e+02,5.736941700000000033e-01
3.630000000000000000e+02,5.736941700000000033e-01
3.640000000000000000e+02,5.736941700000000033e-01
3.650000000000000000e+02,5.736941700000000033e-01
3.660000000000000000e+02,5.736941700000000033e-01
3.670000000000000000e+02,5.736941700000000033e-01
3.680000000000000000e+02,5.736941700000000033e-01
3.690000000000000000e+02,5.736941700000000033e-01
3.700000000000000000e+02,5.736941700000000033e-01
3.710000000000000000e+02,5.736941700000000033e-01
3.720000000000000000e+02,5.736941700000000033e-01
3.730000000000000000e+02,5.736941700000000033e-01
3.740000000000000000e+02,5.736941700000000033e-01
3.750000000000000000e+02,5.736941700000000033e-01
3.760000000000000000e+02,5.736941700000000033e-01
3.770000000000000000e+02,5.736941700000000033e-01
3.780000000000000000e+02,5.736941700000000033e-01
3.790000000000000000e+02,5.736941700000000033e-01
3.800000000000000000e+02,5.736941700000000033e-01
3.810000000000000000e+02,5.736941700000000033e-01
3.820000000000000000e+02,5.736941700000000033e-01
3.830000000000000000e+02,5.736941700000000033e-01
3.840000000000000000e+02,5.736941700000000033e-01
3.850000000000000000e+02,5.736941700000000033e-01
3.860000000000000000e+02,5.736941700000000033e-01
3.870000000000000000e+02,5.736941700000000033e-01
3.880000000000000000e+02,5.736941700000000033e-01
3.890000000000000000e+02,5.736941700000000033e-01
3.900000000000000000e+02,5.736941700000000033e-01
3.910000000000000000e+02,5.736941700000000033e-01
3.920000000000000000e+02,5.736941700000000033e-01
3.930000000000000000e+02,5.736941700000000033e-01
3.940000000000000000e+02,5.736941700000000033e-01
3.950000000000000000e+02,5.736941700000000033e-01
3.960000000000000000e+02,5.736941700000000033e-01
3.970000000000000000e+02,5.736941700000000033e-01
3.980000000000000000e+02,5.736941700000000033e-01
3.990000000000000000e+02,5.736941700000000033e-01
4.000000000000000000e+02,5.736941700000000033e-01
4.010000000000000000e+02,5.736941700000000033e-01
4.020000000000000000e+02,5.736941700000000033e-01
4.030000000000000000e+02,5.736941700000000033e-01
4.040000000000000000e+02,5.736941700000000033e-01
4.050000000000000000e+02,5.736941700000000033e-01
4.060000000000000000e+02,5.736941700000000033e-01
4.070000000000000000e+02,5.736941700000000033e-01
4.080000000000000000e+02,5.736941700000000033e-01
4.090000000000000000e+02,5.736941700000000033e-01
4.100000000000000000e+02,5.736941700000000033e-01
4.110000000000000000e+02,5.736941700000000033e-01
4.120000000000000000e+02,5.736941700000000033e-01
4.130000000000000000e+02,5.736941700000000033e-01
4.140000000000000000e+02,5.736941700000000033e-01
4.150000000000000000e+02,5.736941700000000033e-01
4.160000000000000000e+02,5.736941700000000033e-01
4.170000000000000000e+02,5.736941700000000033e-01
4.180000000000000000e+02,5.736941700000000033e-01
4.190000000000000000e+02,5.736941700000000033e-01
4.200000000000000000e+02,5.736941700000000033e-01
4.210000000000000000e+02,5.736941700000000033e-01
4.220000000000000000e+02,5.736941700000000033e-01
4.230000000000000000e+02,5.736941700000000033e-01
4.240000000000000000e+02,5.736941700000000033e-01
4.250000000000000000e+02,5.736941700000000033e-01
4.260000000000000000e+02,5.736941700000000033e-01
4.270000000000000000e+02,5.736941700000000033e-01
4.280000000000000000e+02,5.736941700000000033e-01
4.290000000000000000e+02,5.736941700000000033e-01
4.300000000000000000e+02,5.736941700000000033e-01
4.310000000000000000e+02,5.736941700000000033e-01
4.320000000000000000e+02,5.736941700000000033e-01
4.330000000000000000e+02,5.736941700000000033e-01
4.340000000000000000e+02,5.736941700000000033e-01
4.350000000000000000e+02,5.736941700000000033e-01
4.360000000000000000e+02,5.736941700000000033e-01
4.370000000000000000e+02,5.736941700000000033e-01
4.380000000000000000e+02,5.736941700000000033e-01
4.390000000000000000e+02,5.736941700000000033e-01
4.400000000000000000e+02,5.736941700000000033e-01
4.410000000000000000e+02,5.736941700000000033e-01
4.420000000000000000e+02,5.736941700000000033e-01
4.430000000000000000e+02,5.736941700000000033e-01
4.440000000000000000e+02,5.736941700000000033e-01
4.450000000000000000e+02,5.736941700000000033e-01
4.460000000000000000e+02,5.736941700000000033e-01
4.470000000000000000e+02,5.736941700000000033e-01
4.480000000000000000e+02,5.736941700000000033e-01
4.490000000000000000e+02,5.736941700000000033e-01
4.500000000000000000e+02,5.736941700000000033e-01
4.510000000000000000e+02,5.736941700000000033e-01
4.520000000000000000e+02,5.736941700000000033e-01
4.530000000000000000e+02,5.736941700000000033e-01
4.540000000000000000e+02,5.736941700000000033e-01
4.550000000000000000e+02,5.736941700000000033e-01
4.560000000000000000e+02,5.736941700000000033e-01
4.570000000000000000e+02,5.736941700000000033e-01
4.580000000000000000e+02,5.736941700000000033e-01
4.590000000000000000e+02,5.736941700000000033e-01
4.600000000000000000e+02,5.736941700000000033e-01
4.610000000000000000e+02,5.736941700000000033e-01
4.620000000000000000e+02,5.736941700000000033e-01
4.630000000000000000e+02,5.736941700000000033e-01
4.640000000000000000e+02,5.736941700000000033e-01
4.650000000000000000e+02,5.736941700000000033e-01
4.660000000000000000e+02,5.736941700000000033e-01
4.670000000000000000e+02,5.736941700000000033e-01
4.680000000000000000e+02,5.736941700000000033e-01
4.690000000000000000e+02,5.736941700000000033e-01
4.700000000000000000e+02,5.736941700000000033e-01
4.710000000000000000e+02,5.736941700000000033e-01
4.720000000000000000e+02,5.736941700000000033e-01
4.730000000000000000e+02,5.736941700000000033e-01
4.740000000000000000e+02,5.736941700000000033e-01
4.750000000000000000e+02,5.736941700000000033e-01
4.760000000000000000e+02,5.736941700000000033e-01
4.770000000000000000e+02,5.736941700000000033e-01
4.780000000000000000e+02,5.736941700000000033e-01
4.790000000000000000e+02,5.736941700000000033e-01
4.800000000000000000e+02,5.736941700000000033e-01
4.810000000000000000e+02,5.736941700000000033e-01
4.820000000000000000e+02,5.736941700000000033e-01
4.830000000000000000e+02,5.736941700000000033e-01
4.840000000000000000e+02,5.736941700000000033e-01
4.850000000000000000e+02,5.736941700000000033e-01
4.860000000000000000e+02,5.736941700000000033e-01
4.870000000000000000e+02,5.736941700000000033e-01
4.880000000000000000e+02,5.736941700000000033e-01
4.890000000000000000e+02,5.736941700000000033e-01
4.900000000000000000e+02,5.736941700000000033e-01
4.910000000000000000e+02,5.736941700000000033e-01
4.920000000000000000e+02,5.736941700000000033e-01
4.930000000000000000e+02,5.736941700000000033e-01
4.940000000000000000e+02,5.736941700000000033e-01
4.950000000000000000e+02,5.736941700000000033e-01
4.960000000000000000e+02,5.736941700000000033e-01
4.970000000000000000e+02,5.736941700000000033e-01
4.980000000000000000e+02,5.736941700000000033e-01
4.990000000000000000e+02,5.736941700000000033e-01
5.000000000000000000e+02,5.736941700000000033e-01
5.010000000000000000e+02,5.736941700000000033e-01
5.020000000000000000e+02,5.736941700000000033e-01
5.030000000000000000e+02,5.736941700000000033e-01
5.040000000000000000e+02,5.736941700000000033e-01
5.050000000000000000e+02,5.736941700000000033e-01
5.060000000000000000e+02,5.736941700000000033e-01
5.070000000000000000e+02,5.736941700000000033e-01
5.080000000000000000e+02,5.736941700000000033e-01
5.090000000000000000e+02,5.736941700000000033e-01
5.100000000000000000e+02,5.736941700000000033e-01
5.110000000000000000e+02,5.736941700000000033e-01
5.120000000000000000e+02,5.736941700000000033e-01
5.130000000000000000e+02,5.736941700000000033e-01
5.140000000000000000e+02,5.736941700000000033e-01
5.150000000000000000e+02,5.736941700000000033e-01
5.160000000000000000e+02,5.736941700000000033e-01
5.170000000000000000e+02,5.736941700000000033e-01
5.180000000000000000e+02,5.736941700000000033e-01
5.190000000000000000e+02,5.736941700000000033e-01
5.200000000000000000e+02,5.736941700000000033e-01
5.210000000000000000e+02,5.736941700000000033e-01
5.220000000000000000e+02,5.736941700000000033e-01
5.230000000000000000e+02,5.736941700000000033e-01
5.240000000000000000e+02,5.736941700000000033e-01
5.250000000000000000e+02,5.736941700000000033e-01
5.260000000000000000e+02,5.736941700000000033e-01
5.270000000000000000e+02,5.736941700000000033e-01
5.280000000000000000e+02,5.736941700000000033e-01
5.290000000000000000e+02,5.736941700000000033e-01
5.300000000000000000e+02,5.736941700000000033e-01
5.310000000000000000e+02,5.736941700000000033e-01
5.320000000000000000e+02,5.736941700000000033e-01
5.330000000000000000e+02,5.736941700000000033e-01
5.340000000000000000e+02,5.736941700000000033e-01
5.350000000000000000e+02,5.736941700000000033e-01
5.360000000000000000e+02,5.736941700000000033e-01
5.370000000000000000e+02,5.736941700000000033e-01
5.380000000000000000e+02,5.736941700000000033e-01
5.390000000000000000e+02,5.736941700000000033e-01
5.400000000000000000e+02,5.736941700000000033e-01
5.410000000000000000e+02,5.736941700000000033e-01
5.420000000000000000e+02,5.736941700000000033e-01
5.430000000000000000e+02,5.736941700000000033e-01
5.440000000000000000e+02,5.736941700000000033e-01
5.450000000000000000e+02,5.736941700000000033e-01
5.460000000000000000e+02,5.736941700000000033e-01
5.470000000000000000e+02,5.736941700000000033e-01
5.480000000000000000e+02,5.736941700000000033e-01
5.490000000000000000e+02,5.736941700000000033e-01
5.500000000000000000e+02,5.736941700000000033e-01
5.510000000000000000e+02,5.736941700000000033e-01
5.520000000000000000e+02,5.736941700000000033e-01
5.530000000000000000e+02,5.736941700000000033e-01
5.540000000000000000e+02,5.736941700000000033e-01
5.550000000000000000e+02,5.736941700000000033e-01
5.560000000000000000e+02,5.736941700000000033e-01
5.570000000000000000e+02,5.736941700000000033e-01
5.580000000000000000e+02,5.736941700000000033e-01
5.590000000000000000e+02,5.736941700000000033e-01
5.600000000000000000e+02,5.736941700000000033e-01
5.610000000000000000e+02,5.736941700000000033e-01
5.620000000000000000e+02,5.736941700000000033e-01
5.630000000000000000e+02,5.736941700000000033e-01
5.640000000000000000e+02,5.736941700000000033e-01
5.650000000000000000e+02,5.736941700000000033e-01
5.660000000000000000e+02,5.736941700000000033e-01
5.670000000000000000e+02,5.736941700000000033e-01
5.680000000000000000e+02,5.736941700000000033e-01
5.690000000000000000e+02,5.736941700000000033e-01
5.700000000000000000e+02,5.736941700000000033e-01
5.710000000000000000e+02,5.736941700000000033e-01
5.720000000000000000e+02,5.736941700000000033e-01
5.730000000000000000e+02,5.736941700000000033e-01
5.740000000000000000e+02,5.736941700000000033e-01
5.750000000000000000e+02,5.736941700000000033e-01
5.760000000000000000e+02,5.736941700000000033e-01
5.770000000000000000e+02,5.736941700000000033e-01
5.780000000000000000e+02,5.736941700000000033e-01
5.790000000000000000e+02,5.736941700000000033e-01
5.800000000000000000e+02,5.736941700000000033e-01
5.810000000000000000e+02,5.736941700000000033e-01
5.820000000000000000e+02,5.736941700000000033e-01
5.830000000000000000e+02,5.736941700000000033e-01
5.840000000000000000e+02,5.736941700000000033e-01
5.850000000000000000e+02,5.736941700000000033e-01
5.860000000000000000e+02,5.736941700000000033e-01
5.870000000000000000e+02,5.736941700000000033e-01
5.880000000000000000e+02,5.736941700000000033e-01
5.890000000000000000e+02,5.736941700000000033e-01
5.900000000000000000e+02,5.736941700000000033e-01
5.910000000000000000e+02,5.736941700000000033e-01
5.920000000000000000e+02,5.736941700000000033e-01
5.930000000000000000e+02,5.736941700000000033e-01
5.940000000000000000e+02,5.736941700000000033e-01
5.950000000000000000e+02,5.736941700000000033e-01
5.960000000000000000e+02,5.736941700000000033e-01
5.970000000000000000e+02,5.736941700000000033e-01
5.980000000000000000e+02,5.736941700000000033e-01
5.990000000000000000e+02,5.736941700000000033e-01