# Time [s], Temperature [C]
1.000000000000000000e+00,2.499997700000000123e+01
2.000000000000000000e+00,9.303990899999999442e+01
3.000000000000000000e+00,1.352698499999999910e+02
4.000000000000000000e+00,1.673596200000000067e+02
5.000000000000000000e+00,1.940849200000000110e+02
6.000000000000000000e+00,2.172480199999999968e+02
7.000000000000000000e+00,2.378396899999999903e+02
8.000000000000000000e+00,2.565903900000000135e+02
9.000000000000000000e+00,2.741721499999999878e+02
1.000000000000000000e+01,2.907051399999999717e+02
1.100000000000000000e+01,3.057136800000000108e+02
1.200000000000000000e+01,3.191518199999999865e+02
1.300000000000000000e+01,3.310889900000000239e+02
1.400000000000000000e+01,3.414160800000000222e+02
1.500000000000000000e+01,3.499518400000000042e+02
1.600000000000000000e+01,3.567200900000000274e+02
1.700000000000000000e+01,3.621380300000000148e+02
1.800000000000000000e+01,3.666699199999999905e+02
1.900000000000000000e+01,3.707842699999999923e+02
2.000000000000000000e+01,3.748301399999999717e+02
2.100000000000000000e+01,3.787979700000000207e+02
2.200000000000000000e+01,3.828939199999999801e+02
2.300000000000000000e+01,3.872559800000000223e+02
2.400000000000000000e+01,3.916993699999999876e+02
2.500000000000000000e+01,3.963256200000000149e+02
2.600000000000000000e+01,4.011548799999999915e+02
2.700000000000000000e+01,4.058970299999999725e+02
2.800000000000000000e+01,4.104824199999999905e+02
2.900000000000000000e+01,4.148209499999999821e+02
3.000000000000000000e+01,4.187119799999999827e+02
3.100000000000000000e+01,4.221643100000000004e+02
3.200000000000000000e+01,4.252940399999999954e+02
3.300000000000000000e+01,4.281976000000000226e+02
3.400000000000000000e+01,4.310297899999999913e+02
3.500000000000000000e+01,4.339099400000000060e+02
3.600000000000000000e+01,4.368861400000000117e+02
3.700000000000000000e+01,4.399682599999999866e+02
3.800000000000000000e+01,4.431341199999999958e+02
3.900000000000000000e+01,4.462999300000000176e+02
4.000000000000000000e+01,4.494082300000000032e+02
4.100000000000000000e+01,4.523937399999999798e+02
4.200000000000000000e+01,4.552320900000000279e+02
4.300000000000000000e+01,4.579114700000000084e+02
4.400000000000000000e+01,4.604816599999999767e+02
4.500000000000000000e+01,4.629636199999999917e+02
4.600000000000000000e+01,4.654162299999999846e+02
4.700000000000000000e+01,4.678652299999999968e+02
4.800000000000000000e+01,4.703301399999999717e+02
4.900000000000000000e+01,4.728169599999999946e+02
5.000000000000000000e+01,4.752992899999999850e+02
5.100000000000000000e+01,4.777650800000000118e+02
5.200000000000000000e+01,4.801825600000000236e+02
5.300000000000000000e+01,4.825431800000000067e+02
5.400000000000000000e+01,4.848240400000000250e+02
5.500000000000000000e+01,4.870387299999999868e+02
5.600000000000000000e+01,4.891966600000000085e+02
5.700000000000000000e+01,4.913010600000000068e+02
5.800000000000000000e+01,4.933870200000000068e+02
5.900000000000000000e+01,4.954483000000000175e+02
6.000000000000000000e+01,4.974976500000000215e+02
6.100000000000000000e+01,4.981637299999999868e+02
6.200000000000000000e+01,4.980854499999999803e+02
6.300000000000000000e+01,4.996773699999999963e+02
6.400000000000000000e+01,5.013023999999999774e+02
6.500000000000000000e+01,5.030552700000000073e+02
6.600000000000000000e+01,5.048326999999999884e+02
6.700000000000000000e+01,5.066245400000000245e+02
6.800000000000000000e+01,5.084119299999999839e+02
6.900000000000000000e+01,5.101992500000000064e+02
7.000000000000000000e+01,5.119794899999999984e+02
7.100000000000000000e+01,5.137605600000000550e+02
7.200000000000000000e+01,5.155352199999999812e+02
7.300000000000000000e+01,5.173081700000000183e+02
7.400000000000000000e+01,5.190718399999999519e+02
7.500000000000000000e+01,5.208167700000000195e+02
7.600000000000000000e+01,5.225443099999999959e+02
7.700000000000000000e+01,5.242454199999999673e+02
7.800000000000000000e+01,5.259237699999999904e+02
7.900000000000000000e+01,5.275811800000000176e+02
8.000000000000000000e+01,5.292120400000000018e+02
8.100000000000000000e+01,5.308234300000000303e+02
8.200000000000000000e+01,5.324111900000000333e+02
8.300000000000000000e+01,5.339858400000000529e+02
8.400000000000000000e+01,5.355422399999999925e+02
8.500000000000000000e+01,5.370887500000000045e+02
8.600000000000000000e+01,5.386223099999999704e+02
8.700000000000000000e+01,5.401361100000000306e+02
8.800000000000000000e+01,5.416383700000000090e+02
8.900000000000000000e+01,5.431296999999999571e+02
9.000000000000000000e+01,5.445996699999999464e+02
9.100000000000000000e+01,5.460530400000000100e+02
9.200000000000000000e+01,5.474889500000000453e+02
9.300000000000000000e+01,5.489078399999999647e+02
9.400000000000000000e+01,5.503128699999999753e+02
9.500000000000000000e+01,5.517110000000000127e+02
9.600000000000000000e+01,5.530892300000000432e+02
9.700000000000000000e+01,5.544584999999999582e+02
9.800000000000000000e+01,5.558135999999999513e+02
9.900000000000000000e+01,5.571589999999999918e+02
1.000000000000000000e+02,5.584918800000000374e+02
1.010000000000000000e+02,5.598162800000000061e+02
1.020000000000000000e+02,5.611284200000000055e+02
1.030000000000000000e+02,5.624273100000000341e+02
1.040000000000000000e+02,5.637158799999999701e+02
1.050000000000000000e+02,5.649919399999999996e+02
1.060000000000000000e+02,5.662549400000000333e+02
1.070000000000000000e+02,5.675107400000000553e+02
1.080000000000000000e+02,5.687522599999999784e+02
1.090000000000000000e+02,5.699866299999999910e+02
1.100000000000000000e+02,5.712138700000000426e+02
1.110000000000000000e+02,5.724252300000000560e+02
1.120000000000000000e+02,5.735717799999999897e+02
1.130000000000000000e+02,5.746499599999999646e+02
1.140000000000000000e+02,5.757545199999999568e+02
1.150000000000000000e+02,5.768853100000000040e+02
1.160000000000000000e+02,5.780165399999999636e+02
1.170000000000000000e+02,5.791431900000000041e+02
1.180000000000000000e+02,5.802661100000000260e+02
1.190000000000000000e+02,5.813818400000000111e+02
1.200000000000000000e+02,5.824921900000000505e+02
1.210000000000000000e+02,5.835968599999999924e+02
1.220000000000000000e+02,5.846934199999999464e+02
1.230000000000000000e+02,5.857894900000000007e+02
1.240000000000000000e+02,5.868783600000000433e+02
1.250000000000000000e+02,5.879636199999999917e+02
1.260000000000000000e+02,5.890435199999999440e+02
1.270000000000000000e+02,5.901191400000000158e+02
1.280000000000000000e+02,5.911862800000000107e+02
1.290000000000000000e+02,5.922468900000000076e+02
1.300000000000000000e+02,5.933029199999999719e+02
1.310000000000000000e+02,5.943511399999999867e+02
1.320000000000000000e+02,5.953925199999999904e+02
1.330000000000000000e+02,5.964282200000000103e+02
1.340000000000000000e+02,5.974548300000000154e+02
1.350000000000000000e+02,5.984811399999999821e+02
1.360000000000000000e+02,5.994953600000000051e+02
1.370000000000000000e+02,6.005059199999999464e+02
1.380000000000000000e+02,6.015063499999999976e+02
1.390000000000000000e+02,6.025016500000000406e+02
1.400000000000000000e+02,6.034878499999999804e+02
1.410000000000000000e+02,6.044737499999999955e+02
1.420000000000000000e+02,6.054474500000000035e+02
1.430000000000000000e+02,6.064177200000000312e+02
1.440000000000000000e+02,6.073779299999999921e+02
1.450000000000000000e+02,6.083370999999999640e+02
1.460000000000000000e+02,6.092852799999999434e+02
1.470000000000000000e+02,6.102288800000000037e+02
1.480000000000000000e+02,6.111684000000000196e+02
1.490000000000000000e+02,6.120971100000000433e+02
1.500000000000000000e+02,6.130216100000000097e+02
1.510000000000000000e+02,6.139428699999999708e+02
1.520000000000000000e+02,6.148563799999999446e+02
1.530000000000000000e+02,6.157652600000000120e+02
1.540000000000000000e+02,6.166590599999999540e+02
1.550000000000000000e+02,6.175448599999999715e+02
1.560000000000000000e+02,6.184168100000000550e+02
1.570000000000000000e+02,6.192868700000000217e+02
1.580000000000000000e+02,6.201470299999999725e+02
1.590000000000000000e+02,6.210031699999999546e+02
1.600000000000000000e+02,6.218507100000000491e+02
1.610000000000000000e+02,6.226948200000000497e+02
1.620000000000000000e+02,6.235318600000000515e+02
1.630000000000000000e+02,6.243632199999999557e+02
1.640000000000000000e+02,6.251909200000000055e+02
1.650000000000000000e+02,6.260142799999999852e+02
1.660000000000000000e+02,6.268301999999999907e+02
1.670000000000000000e+02,6.276440400000000182e+02
1.680000000000000000e+02,6.284529999999999745e+02
1.690000000000000000e+02,6.292539100000000190e+02
1.700000000000000000e+02,6.300531600000000481e+02
1.710000000000000000e+02,6.308476600000000190e+02
1.720000000000000000e+02,6.316373899999999821e+02
1.730000000000000000e+02,6.324227899999999636e+02
1.740000000000000000e+02,6.332001999999999953e+02
1.750000000000000000e+02,6.339746699999999464e+02
1.760000000000000000e+02,6.347462799999999561e+02
1.770000000000000000e+02,6.355126999999999953e+02
1.780000000000000000e+02,6.362741099999999506e+02
1.790000000000000000e+02,6.370312500000000000e+02
1.800000000000000000e+02,6.377824699999999893e+02
1.810000000000000000e+02,6.385297900000000482e+02
1.820000000000000000e+02,6.392736200000000508e+02
1.830000000000000000e+02,6.400124499999999443e+02
1.840000000000000000e+02,6.407476799999999457e+02
1.850000000000000000e+02,6.414790600000000040e+02
1.860000000000000000e+02,6.422058100000000422e+02
1.870000000000000000e+02,6.429313399999999774e+02
1.880000000000000000e+02,6.436516100000000051e+02
1.890000000000000000e+02,6.443559599999999818e+02
1.900000000000000000e+02,6.450522499999999582e+02
1.910000000000000000e+02,6.457594599999999900e+02
1.920000000000000000e+02,6.464652099999999564e+02
1.930000000000000000e+02,6.471666300000000547e+02
1.940000000000000000e+02,6.478663900000000240e+02
1.950000000000000000e+02,6.485622600000000375e+02
1.960000000000000000e+02,6.492567699999999604e+02
1.970000000000000000e+02,6.499478800000000547e+02
1.980000000000000000e+02,6.506372699999999440e+02
1.990000000000000000e+02,6.513250100000000202e+02
2.000000000000000000e+02,6.520135500000000093e+02
2.010000000000000000e+02,6.526981799999999794e+02
2.020000000000000000e+02,6.533831800000000385e+02
2.030000000000000000e+02,6.540704299999999876e+02
2.040000000000000000e+02,6.547582999999999629e+02
2.050000000000000000e+02,6.554452499999999873e+02
2.060000000000000000e+02,6.561325100000000248e+02
2.070000000000000000e+02,6.568220199999999522e+02
2.080000000000000000e+02,6.575116000000000440e+02
2.090000000000000000e+02,6.582045900000000529e+02
2.100000000000000000e+02,6.588997799999999643e+02
2.110000000000000000e+02,6.595991199999999708e+02
2.120000000000000000e+02,6.602999300000000176e+02
2.130000000000000000e+02,6.610053699999999708e+02
2.140000000000000000e+02,6.617150900000000320e+02
2.150000000000000000e+02,6.624314000000000533e+02
2.160000000000000000e+02,6.631498400000000402e+02
2.170000000000000000e+02,6.638745099999999866e+02
2.180000000000000000e+02,6.646049799999999550e+02
2.190000000000000000e+02,6.653400299999999561e+02
2.200000000000000000e+02,6.660821499999999560e+02
2.210000000000000000e+02,6.668259900000000471e+02
2.220000000000000000e+02,6.675772100000000364e+02
2.230000000000000000e+02,6.683351400000000240e+02
2.240000000000000000e+02,6.690988200000000461e+02
2.250000000000000000e+02,6.698671900000000505e+02
2.260000000000000000e+02,6.706408699999999499e+02
2.270000000000000000e+02,6.714176599999999553e+02
2.280000000000000000e+02,6.722006800000000339e+02
2.290000000000000000e+02,6.729879799999999932e+02
2.300000000000000000e+02,6.737803300000000490e+02
2.310000000000000000e+02,6.745762899999999718e+02
2.320000000000000000e+02,6.753738399999999729e+02
2.330000000000000000e+02,6.761771199999999453e+02
2.340000000000000000e+02,6.769831500000000233e+02
2.350000000000000000e+02,6.777894300000000385e+02
2.360000000000000000e+02,6.786004599999999982e+02
2.370000000000000000e+02,6.794127799999999979e+02
2.380000000000000000e+02,6.802275399999999763e+02
2.390000000000000000e+02,6.810425999999999931e+02
2.400000000000000000e+02,6.818602300000000014e+02
2.410000000000000000e+02,6.826788900000000240e+02
2.420000000000000000e+02,6.834961499999999432e+02
2.430000000000000000e+02,6.843156699999999546e+02
2.440000000000000000e+02,6.851358000000000175e+02
2.450000000000000000e+02,6.859547099999999773e+02
2.460000000000000000e+02,6.867747799999999643e+02
2.470000000000000000e+02,6.875948499999999513e+02
2.480000000000000000e+02,6.884131499999999733e+02
2.490000000000000000e+02,6.892311999999999443e+02
2.500000000000000000e+02,6.900488299999999526e+02
2.510000000000000000e+02,6.908663299999999481e+02
2.520000000000000000e+02,6.916799899999999752e+02
2.530000000000000000e+02,6.924940199999999777e+02
2.540000000000000000e+02,6.933068799999999783e+02
2.550000000000000000e+02,6.941160899999999856e+02
2.560000000000000000e+02,6.949250500000000557e+02
2.570000000000000000e+02,6.957315099999999575e+02
2.580000000000000000e+02,6.965357099999999946e+02
2.590000000000000000e+02,6.973388700000000426e+02
2.600000000000000000e+02,6.981411100000000260e+02
2.610000000000000000e+02,6.989403700000000299e+02
2.620000000000000000e+02,6.997352899999999636e+02
2.630000000000000000e+02,7.005300300000000107e+02
2.640000000000000000e+02,7.013221399999999903e+02
2.650000000000000000e+02,7.021115099999999529e+02
2.660000000000000000e+02,7.028969100000000481e+02
2.670000000000000000e+02,7.036817600000000539e+02
2.680000000000000000e+02,7.044624599999999646e+02
2.690000000000000000e+02,7.052415200000000368e+02
2.700000000000000000e+02,7.060169700000000148e+02
2.710000000000000000e+02,7.067875999999999976e+02
2.720000000000000000e+02,7.075576800000000048e+02
2.730000000000000000e+02,7.083240399999999681e+02
2.740000000000000000e+02,7.090873400000000402e+02
2.750000000000000000e+02,7.098483899999999949e+02
2.760000000000000000e+02,7.106055900000000065e+02
2.770000000000000000e+02,7.113602300000000014e+02
2.780000000000000000e+02,7.121102899999999636e+02
2.790000000000000000e+02,7.128577900000000227e+02
2.800000000000000000e+02,7.136034499999999525e+02
2.810000000000000000e+02,7.143446000000000140e+02
2.820000000000000000e+02,7.150824599999999691e+02
2.830000000000000000e+02,7.158173199999999952e+02
2.840000000000000000e+02,7.165491899999999532e+02
2.850000000000000000e+02,7.172770400000000564e+02
2.860000000000000000e+02,7.180029899999999543e+02
2.870000000000000000e+02,7.187243700000000217e+02
2.880000000000000000e+02,7.194421999999999571e+02
2.890000000000000000e+02,7.201568600000000515e+02
2.900000000000000000e+02,7.208690199999999777e+02
2.910000000000000000e+02,7.215778199999999742e+02
2.920000000000000000e+02,7.222813700000000381e+02
2.930000000000000000e+02,7.229832199999999602e+02
2.940000000000000000e+02,7.236810299999999643e+02
2.950000000000000000e+02,7.243754900000000134e+02
2.960000000000000000e+02,7.250677500000000464e+02
2.970000000000000000e+02,7.257542700000000195e+02
2.980000000000000000e+02,7.264381100000000515e+02
2.990000000000000000e+02,7.271201800000000048e+02
3.000000000000000000e+02,7.277970000000000255e+02
3.010000000000000000e+02,7.284707600000000411e+02
3.020000000000000000e+02,7.291415399999999636e+02
3.030000000000000000e+02,7.298094499999999698e+02
3.040000000000000000e+02,7.304719199999999546e+02
3.050000000000000000e+02,7.311336700000000519e+02
3.060000000000000000e+02,7.317914399999999659e+02
3.070000000000000000e+02,7.324442699999999604e+02
3.080000000000000000e+02,7.330956999999999653e+02
3.090000000000000000e+02,7.337416399999999612e+02
3.100000000000000000e+02,7.343848299999999654e+02
3.110000000000000000e+02,7.350259999999999536e+02
3.120000000000000000e+02,7.356632700000000114e+02
3.130000000000000000e+02,7.362963899999999740e+02
3.140000000000000000e+02,7.369274900000000343e+02
3.150000000000000000e+02,7.375533400000000483e+02
3.160000000000000000e+02,7.381785899999999856e+02
3.170000000000000000e+02,7.387984000000000151e+02
3.180000000000000000e+02,7.394155299999999897e+02
3.190000000000000000e+02,7.400277099999999564e+02
3.200000000000000000e+02,7.406401399999999740e+02
3.210000000000000000e+02,7.412465200000000323e+02
3.220000000000000000e+02,7.418502200000000357e+02
3.230000000000000000e+02,7.424516599999999471e+02
3.240000000000000000e+02,7.430492600000000039e+02
3.250000000000000000e+02,7.436436800000000176e+02
3.260000000000000000e+02,7.442338899999999740e+02
3.270000000000000000e+02,7.448229400000000169e+02
3.280000000000000000e+02,7.454069799999999759e+02
3.290000000000000000e+02,7.459878499999999804e+02
3.300000000000000000e+02,7.465674999999999955e+02
3.310000000000000000e+02,7.471413000000000011e+02
3.320000000000000000e+02,7.477134999999999536e+02
3.330000000000000000e+02,7.482818600000000515e+02
3.340000000000000000e+02,7.488476000000000568e+02
3.350000000000000000e+02,7.494106399999999439e+02
3.360000000000000000e+02,7.499699699999999893e+02
3.370000000000000000e+02,7.505252100000000155e+02
3.380000000000000000e+02,7.510788599999999633e+02
3.390000000000000000e+02,7.516290299999999434e+02
3.400000000000000000e+02,7.521755399999999554e+02
3.410000000000000000e+02,7.527197899999999890e+02
3.420000000000000000e+02,7.532611699999999928e+02
3.430000000000000000e+02,7.537979699999999639e+02
3.440000000000000000e+02,7.543342300000000478e+02
3.450000000000000000e+02,7.548656600000000481e+02
3.460000000000000000e+02,7.553944099999999935e+02
3.470000000000000000e+02,7.559203499999999849e+02
3.480000000000000000e+02,7.564435999999999467e+02
3.490000000000000000e+02,7.569624000000000024e+02
3.500000000000000000e+02,7.574806499999999687e+02
3.510000000000000000e+02,7.579940199999999777e+02
3.520000000000000000e+02,7.585054900000000089e+02
3.530000000000000000e+02,7.590130000000000337e+02
3.540000000000000000e+02,7.595193500000000313e+02
3.550000000000000000e+02,7.600218499999999722e+02
3.560000000000000000e+02,7.605207500000000209e+02
3.570000000000000000e+02,7.610183100000000422e+02
3.580000000000000000e+02,7.615114700000000312e+02
3.590000000000000000e+02,7.620034200000000055e+02
3.600000000000000000e+02,7.624913900000000240e+02
3.610000000000000000e+02,7.629766200000000254e+02
3.620000000000000000e+02,7.634597800000000234e+02
3.630000000000000000e+02,7.639389599999999518e+02
3.640000000000000000e+02,7.644161400000000413e+02
3.650000000000000000e+02,7.648906200000000126e+02
3.660000000000000000e+02,7.653618199999999661e+02
3.670000000000000000e+02,7.658306900000000041e+02
3.680000000000000000e+02,7.662974900000000389e+02
3.690000000000000000e+02,7.667600700000000415e+02
3.700000000000000000e+02,7.672206999999999653e+02
3.710000000000000000e+02,7.676788299999999481e+02
3.720000000000000000e+02,7.681348299999999654e+02
3.730000000000000000e+02,7.685866700000000264e+02
3.740000000000000000e+02,7.690371699999999464e+02
3.750000000000000000e+02,7.694848600000000260e+02
3.760000000000000000e+02,7.699287100000000237e+02
3.770000000000000000e+02,7.703712199999999939e+02
3.780000000000000000e+02,7.708107899999999972e+02
3.790000000000000000e+02,7.712471900000000460e+02
3.800000000000000000e+02,7.716819500000000289e+02
3.810000000000000000e+02,7.721137099999999691e+02
3.820000000000000000e+02,7.725429699999999684e+02
3.830000000000000000e+02,7.729704000000000406e+02
3.840000000000000000e+02,7.733947799999999688e+02
3.850000000000000000e+02,7.738156099999999924e+02
3.860000000000000000e+02,7.742354699999999639e+02
3.870000000000000000e+02,7.746522200000000566e+02
3.880000000000000000e+02,7.750663500000000568e+02
3.890000000000000000e+02,7.754787599999999657e+02
3.900000000000000000e+02,7.758872099999999818e+02
3.910000000000000000e+02,7.762938199999999824e+02
3.920000000000000000e+02,7.766986699999999928e+02
3.930000000000000000e+02,7.771009500000000116e+02
3.940000000000000000e+02,7.775004900000000134e+02
3.950000000000000000e+02,7.778980699999999615e+02
3.960000000000000000e+02,7.782930300000000443e+02
3.970000000000000000e+02,7.786856099999999969e+02
3.980000000000000000e+02,7.790753799999999956e+02
3.990000000000000000e+02,7.794628900000000158e+02
4.000000000000000000e+02,7.798483300000000327e+02
4.010000000000000000e+02,7.802319899999999961e+02
4.020000000000000000e+02,7.806127300000000560e+02
4.030000000000000000e+02,7.809910899999999856e+02
4.040000000000000000e+02,7.813677999999999884e+02
4.050000000000000000e+02,7.817418199999999615e+02
4.060000000000000000e+02,7.821135299999999688e+02
4.070000000000000000e+02,7.824834600000000364e+02
4.080000000000000000e+02,7.828506499999999733e+02
4.090000000000000000e+02,7.832153899999999567e+02
4.100000000000000000e+02,7.835786100000000260e+02
4.110000000000000000e+02,7.839392699999999650e+02
4.120000000000000000e+02,7.842980300000000398e+02
4.130000000000000000e+02,7.846542399999999589e+02
4.140000000000000000e+02,7.850084200000000010e+02
4.150000000000000000e+02,7.853602899999999636e+02
4.160000000000000000e+02,7.857102700000000368e+02
4.170000000000000000e+02,7.860576200000000426e+02
4.180000000000000000e+02,7.864029500000000326e+02
4.190000000000000000e+02,7.867466399999999567e+02
4.200000000000000000e+02,7.870883199999999533e+02
4.210000000000000000e+02,7.874270000000000209e+02
4.220000000000000000e+02,7.877642799999999852e+02
4.230000000000000000e+02,7.880991800000000467e+02
4.240000000000000000e+02,7.884321300000000292e+02
4.250000000000000000e+02,7.887634299999999712e+02
4.260000000000000000e+02,7.890922900000000482e+02
4.270000000000000000e+02,7.894194899999999961e+02
4.280000000000000000e+02,7.897442600000000539e+02
4.290000000000000000e+02,7.900670800000000327e+02
4.300000000000000000e+02,7.903876999999999953e+02
4.310000000000000000e+02,7.907068500000000313e+02
4.320000000000000000e+02,7.910240499999999884e+02
4.330000000000000000e+02,7.913391100000000051e+02
4.340000000000000000e+02,7.916525299999999561e+02
4.350000000000000000e+02,7.919635600000000295e+02
4.360000000000000000e+02,7.922726400000000240e+02
4.370000000000000000e+02,7.925803200000000288e+02
4.380000000000000000e+02,7.928851300000000037e+02
4.390000000000000000e+02,7.931884800000000268e+02
4.400000000000000000e+02,7.934903000000000475e+02
4.410000000000000000e+02,7.937907099999999900e+02
4.420000000000000000e+02,7.940878900000000158e+02
4.430000000000000000e+02,7.943840300000000525e+02
4.440000000000000000e+02,7.946779199999999719e+02
4.450000000000000000e+02,7.949702800000000025e+02
4.460000000000000000e+02,7.952604999999999791e+02
4.470000000000000000e+02,7.955496200000000044e+02
4.480000000000000000e+02,7.958363000000000511e+02
4.490000000000000000e+02,7.961219499999999698e+02
4.500000000000000000e+02,7.964048500000000104e+02
4.510000000000000000e+02,7.966862800000000107e+02
4.520000000000000000e+02,7.969668599999999969e+02
4.530000000000000000e+02,7.972444500000000289e+02
4.540000000000000000e+02,7.975205700000000206e+02
4.550000000000000000e+02,7.977954700000000230e+02
4.560000000000000000e+02,7.980676899999999705e+02
4.570000000000000000e+02,7.983392300000000432e+02
4.580000000000000000e+02,7.986090100000000120e+02
4.590000000000000000e+02,7.988768900000000031e+02
4.600000000000000000e+02,7.991422700000000532e+02
4.610000000000000000e+02,7.994072899999999890e+02
4.620000000000000000e+02,7.996700399999999718e+02
4.630000000000000000e+02,7.999304200000000264e+02
4.640000000000000000e+02,8.001902499999999918e+02
4.650000000000000000e+02,8.004479400000000169e+02
4.660000000000000000e+02,8.007039800000000014e+02
4.670000000000000000e+02,8.009587999999999965e+02
4.680000000000000000e+02,8.012110599999999749e+02
4.690000000000000000e+02,8.014627699999999777e+02
4.700000000000000000e+02,8.017130100000000539e+02
4.710000000000000000e+02,8.019605699999999615e+02
4.720000000000000000e+02,8.022074000000000069e+02
4.730000000000000000e+02,8.024528199999999742e+02
4.740000000000000000e+02,8.026959200000000010e+02
4.750000000000000000e+02,8.029383500000000140e+02
4.760000000000000000e+02,8.031783400000000483e+02
4.770000000000000000e+02,8.034170500000000175e+02
4.780000000000000000e+02,8.036543599999999969e+02
4.790000000000000000e+02,8.038903800000000501e+02
4.800000000000000000e+02,8.041248199999999997e+02
4.810000000000000000e+02,8.043569300000000339e+02
4.820000000000000000e+02,8.045889300000000048e+02
4.830000000000000000e+02,8.048188499999999976e+02
4.840000000000000000e+02,8.050470599999999877e+02
4.850000000000000000e+02,8.052745400000000018e+02
4.860000000000000000e+02,8.054995099999999866e+02
4.870000000000000000e+02,8.057239399999999705e+02
4.880000000000000000e+02,8.059461700000000519e+02
4.890000000000000000e+02,8.061673600000000306e+02
4.900000000000000000e+02,8.063876299999999446e+02
4.910000000000000000e+02,8.066057100000000446e+02
4.920000000000000000e+02,8.068228100000000040e+02
4.930000000000000000e+02,8.070382700000000114e+02
4.940000000000000000e+02,8.072528700000000299e+02
4.950000000000000000e+02,8.074655800000000454e+02
4.960000000000000000e+02,8.076771899999999960e+02
4.970000000000000000e+02,8.078867800000000443e+02
4.980000000000000000e+02,8.080961300000000165e+02
4.990000000000000000e+02,8.083029800000000478e+02
5.000000000000000000e+02,8.085097700000000032e+02
5.010000000000000000e+02,8.087140500000000429e+02
5.020000000000000000e+02,8.089179699999999684e+02
5.030000000000000000e+02,8.091197499999999536e+02
5.040000000000000000e+02,8.093205600000000004e+02
5.050000000000000000e+02,8.095205099999999447e+02
5.060000000000000000e+02,8.097185699999999997e+02
5.070000000000000000e+02,8.099160799999999654e+02
5.080000000000000000e+02,8.101112100000000282e+02
5.090000000000000000e+02,8.103063399999999774e+02
5.100000000000000000e+02,8.104991499999999860e+02
5.110000000000000000e+02,8.106905500000000302e+02
5.120000000000000000e+02,8.108818400000000111e+02
5.130000000000000000e+02,8.110707400000000007e+02
5.140000000000000000e+02,8.112594599999999900e+02
5.150000000000000000e+02,8.114462899999999763e+02
5.160000000000000000e+02,8.116324499999999489e+02
5.170000000000000000e+02,8.118165900000000192e+02
5.180000000000000000e+02,8.120006700000000137e+02
5.190000000000000000e+02,8.121824299999999539e+02
5.200000000000000000e+02,8.123639500000000453e+02
5.210000000000000000e+02,8.125435800000000199e+02
5.220000000000000000e+02,8.127228400000000192e+02
5.230000000000000000e+02,8.128997799999999643e+02
5.240000000000000000e+02,8.130767799999999852e+02
5.250000000000000000e+02,8.132516500000000406e+02
5.260000000000000000e+02,8.134256599999999935e+02
5.270000000000000000e+02,8.135988800000000083e+02
5.280000000000000000e+02,8.137706299999999828e+02
5.290000000000000000e+02,8.139414699999999812e+02
5.300000000000000000e+02,8.141111499999999523e+02
5.310000000000000000e+02,8.142798500000000104e+02
5.320000000000000000e+02,8.144471399999999903e+02
5.330000000000000000e+02,8.146133399999999938e+02
5.340000000000000000e+02,8.147789299999999457e+02
5.350000000000000000e+02,8.149426300000000083e+02
5.360000000000000000e+02,8.151063199999999824e+02
5.370000000000000000e+02,8.152680100000000039e+02
5.380000000000000000e+02,8.154293199999999615e+02
5.390000000000000000e+02,8.155892900000000054e+02
5.400000000000000000e+02,8.157478599999999460e+02
5.410000000000000000e+02,8.159060699999999997e+02
5.420000000000000000e+02,8.160626200000000381e+02
5.430000000000000000e+02,8.162187500000000000e+02
5.440000000000000000e+02,8.163731699999999591e+02
5.450000000000000000e+02,8.165271000000000186e+02
5.460000000000000000e+02,8.166799300000000130e+02
5.470000000000000000e+02,8.168315400000000182e+02
5.480000000000000000e+02,8.169824800000000096e+02
5.490000000000000000e+02,8.171323200000000497e+02
5.500000000000000000e+02,8.172809399999999869e+02
5.510000000000000000e+02,8.174290799999999990e+02
5.520000000000000000e+02,8.175758100000000468e+02
5.530000000000000000e+02,8.177213100000000168e+02
5.540000000000000000e+02,8.178667599999999993e+02
5.550000000000000000e+02,8.180106200000000172e+02
5.560000000000000000e+02,8.181533200000000079e+02
5.570000000000000000e+02,8.182958999999999605e+02
5.580000000000000000e+02,8.184366499999999860e+02
5.590000000000000000e+02,8.185768399999999474e+02
5.600000000000000000e+02,8.187166700000000219e+02
5.610000000000000000e+02,8.188546800000000303e+02
5.620000000000000000e+02,8.189925500000000511e+02
5.630000000000000000e+02,8.191289100000000190e+02
5.640000000000000000e+02,8.192645300000000361e+02
5.650000000000000000e+02,8.193995999999999640e+02
5.660000000000000000e+02,8.195333900000000540e+02
5.670000000000000000e+02,8.196663200000000415e+02
5.680000000000000000e+02,8.197987699999999904e+02
5.690000000000000000e+02,8.199298700000000508e+02
5.700000000000000000e+02,8.200601799999999457e+02
5.710000000000000000e+02,8.201898200000000543e+02
5.720000000000000000e+02,8.203184199999999464e+02
5.730000000000000000e+02,8.204462899999999763e+02
5.740000000000000000e+02,8.205733599999999797e+02
5.750000000000000000e+02,8.206995799999999690e+02
5.760000000000000000e+02,8.208248300000000199e+02
5.770000000000000000e+02,8.209493999999999687e+02
5.780000000000000000e+02,8.210732400000000553e+02
5.790000000000000000e+02,8.211960400000000391e+02
5.800000000000000000e+02,8.213177500000000464e+02
5.810000000000000000e+02,8.214394499999999653e+02
5.820000000000000000e+02,8.215596900000000460e+02
5.830000000000000000e+02,8.216791399999999612e+02
5.840000000000000000e+02,8.217984000000000151e+02
5.850000000000000000e+02,8.219161400000000413e+02
5.860000000000000000e+02,8.220333900000000540e+02
5.870000000000000000e+02,8.221503300000000536e+02
5.880000000000000000e+02,8.222657500000000255e+02
5.890000000000000000e+02,8.223806200000000217e+02
5.900000000000000000e+02,8.224948699999999917e+02
5.910000000000000000e+02,8.226086999999999989e+02
5.920000000000000000e+02,8.227210099999999784e+02
5.930000000000000000e+02,8.228330700000000206e+02
5.940000000000000000e+02,8.229446400000000494e+02
5.950000000000000000e+02,8.230548099999999749e+02
5.960000000000000000e+02,8.231645499999999629e+02
5.970000000000000000e+02,8.232735000000000127e+02
5.980000000000000000e+02,8.233818999999999733e+02
5.990000000000000000e+02,8.234894399999999450e+02