# Time [s], Mass [Kg]
1.000000000000000000e+00,1.000000000000000000e+00
2.000000000000000000e+00,1.000000000000000000e+00
3.000000000000000000e+00,1.000000000000000000e+00
4.000000000000000000e+00,1.000000000000000000e+00
5.000000000000000000e+00,1.000000000000000000e+00
6.000000000000000000e+00,1.000000000000000000e+00
7.000000000000000000e+00,1.000000000000000000e+00
8.000000000000000000e+00,1.000000000000000000e+00
9.000000000000000000e+00,1.000000000000000000e+00
1.000000000000000000e+01,1.000000000000000000e+00
1.100000000000000000e+01,1.000000000000000000e+00
1.200000000000000000e+01,1.000000000000000000e+00
1.300000000000000000e+01,1.000000000000000000e+00
1.400000000000000000e+01,1.000000000000000000e+00
1.500000000000000000e+01,1.000000000000000000e+00
1.600000000000000000e+01,1.000000000000000000e+00
1.700000000000000000e+01,1.000000000000000000e+00
1.800000000000000000e+01,1.000000000000000000e+00
1.900000000000000000e+01,1.000000000000000000e+00
2.000000000000000000e+01,1.000000000000000000e+00
2.100000000000000000e+01,1.000000000000000000e+00
2.200000000000000000e+01,1.000000000000000000e+00
2.300000000000000000e+01,1.000000000000000000e+00
2.400000000000000000e+01,1.000000000000000000e+00
2.500000000000000000e+01,1.000000000000000000e+00
2.600000000000000000e+01,1.000000000000000000e+00
2.700000000000000000e+01,1.000000000000000000e+00
2.800000000000000000e+01,1.000000000000000000e+00
2.900000000000000000e+01,1.000000000000000000e+00
3.000000000000000000e+01,1.000000000000000000e+00
3.100000000000000000e+01,1.000000000000000000e+00
3.200000000000000000e+01,1.000000000000000000e+00
3.300000000000000000e+01,1.000000000000000000e+00
3.400000000000000000e+01,1.000000000000000000e+00
3.500000000000000000e+01,1.000000000000000000e+00
3.600000000000000000e+01,1.000000000000000000e+00
3.700000000000000000e+01,1.000000000000000000e+00
3.800000000000000000e+01,1.000000000000000000e+00
3.900000000000000000e+01,1.000000000000000000e+00
4.000000000000000000e+01,1.000000000000000000e+00
4.100000000000000000e+01,1.000000000000000000e+00
4.200000000000000000e+01,1.000000000000000000e+00
4.300000000000000000e+01,1.000000000000000000e+00
4.400000000000000000e+01,1.000000000000000000e+00
4.500000000000000000e+01,1.000000000000000000e+00
4.600000000000000000e+01,1.000000000000000000e+00
4.700000000000000000e+01,1.000000000000000000e+00
4.800000000000000000e+01,1.000000000000000000e+00
4.900000000000000000e+01,1.000000000000000000e+00
5.000000000000000000e+01,1.000000000000000000e+00
5.100000000000000000e+01,1.000000000000000000e+00
5.200000000000000000e+01,1.000000000000000000e+00
5.300000000000000000e+01,1.000000000000000000e+00
5.400000000000000000e+01,1.000000000000000000e+00
5.500000000000000000e+01,1.000000000000000000e+00
5.600000000000000000e+01,1.000000000000000000e+00
5.700000000000000000e+01,1.000000000000000000e+00
5.800000000000000000e+01,1.000000000000000000e+00
5.900000000000000000e+01,1.000000000000000000e+00
6.000000000000000000e+01,1.000000000000000000e+00
6.100000000000000000e+01,1.000000000000000000e+00
6.200000000000000000e+01,1.000000000000000000e+00
6.300000000000000000e+01,1.000000000000000000e+00
6.400000000000000000e+01,1.000000000000000000e+00
6.500000000000000000e+01,1.000000000000000000e+00
6.600000000000000000e+01,1.000000000000000000e+00
6.700000000000000000e+01,1.000000000000000000e+00
6.800000000000000000e+01,1.000000000000000000e+00
6.900000000000000000e+01,1.000000000000000000e+00
7.000000000000000000e+01,1.000000000000000000e+00
7.100000000000000000e+01,1.000000000000000000e+00
7.200000000000000000e+01,1.000000000000000000e+00
7.300000000000000000e+01,1.000000000000000000e+00
7.400000000000000000e+01,1.000000000000000000e+00
7.500000000000000000e+01,1.000000000000000000e+00
7.600000000000000000e+01,1.000000000000000000e+00
7.700000000000000000e+01,1.000000000000000000e+00
7.800000000000000000e+01,1.000000000000000000e+00
7.900000000000000000e+01,1.000000000000000000e+00
8.000000000000000000e+01,1.000000000000000000e+00
8.100000000000000000e+01,1.000000000000000000e+00
8.200000000000000000e+01,1.000000000000000000e+00
8.300000000000000000e+01,1.000000000000000000e+00
8.400000000000000000e+01,1.000000000000000000e+00
8.500000000000000000e+01,1.000000000000000000e+00
8.600000000000000000e+01,1.000000000000000000e+00
8.700000000000000000e+01,1.000000000000000000e+00
8.800000000000000000e+01,1.000000000000000000e+00
8.900000000000000000e+01,1.000000000000000000e+00
9.000000000000000000e+01,1.000000000000000000e+00
9.100000000000000000e+01,1.000000000000000000e+00
9.200000000000000000e+01,1.000000000000000000e+00
9.300000000000000000e+01,1.000000000000000000e+00
9.400000000000000000e+01,1.000000000000000000e+00
9.500000000000000000e+01,1.000000000000000000e+00
9.600000000000000000e+01,1.000000000000000000e+00
9.700000000000000000e+01,1.000000000000000000e+00
9.800000000000000000e+01,1.000000000000000000e+00
9.900000000000000000e+01,1.000000000000000000e+00
1.000000000000000000e+02,1.000000000000000000e+00
1.010000000000000000e+02,1.000000000000000000e+00
1.020000000000000000e+02,1.000000000000000000e+00
1.030000000000000000e+02,1.000000000000000000e+00
1.040000000000000000e+02,1.000000000000000000e+00
1.050000000000000000e+02,1.000000000000000000e+00
1.060000000000000000e+02,1.000000000000000000e+00
1.070000000000000000e+02,1.000000000000000000e+00
1.080000000000000000e+02,1.000000000000000000e+00
1.090000000000000000e+02,1.000000000000000000e+00
1.100000000000000000e+02,1.000000000000000000e+00
1.110000000000000000e+02,1.000000000000000000e+00
1.120000000000000000e+02,1.000000000000000000e+00
1.130000000000000000e+02,1.000000000000000000e+00
1.140000000000000000e+02,1.000000000000000000e+00
1.150000000000000000e+02,1.000000000000000000e+00
1.160000000000000000e+02,1.000000000000000000e+00
1.170000000000000000e+02,1.000000000000000000e+00
1.180000000000000000e+02,1.000000000000000000e+00
1.190000000000000000e+02,1.000000000000000000e+00
1.200000000000000000e+02,1.000000000000000000e+00
1.210000000000000000e+02,1.000000000000000000e+00
1.220000000000000000e+02,1.000000000000000000e+00
1.230000000000000000e+02,1.000000000000000000e+00
1.240000000000000000e+02,1.000000000000000000e+00
1.250000000000000000e+02,1.000000000000000000e+00
1.260000000000000000e+02,1.000000000000000000e+00
1.270000000000000000e+02,1.000000000000000000e+00
1.280000000000000000e+02,1.000000000000000000e+00
1.290000000000000000e+02,1.000000000000000000e+00
1.300000000000000000e+02,1.000000000000000000e+00
1.310000000000000000e+02,1.000000000000000000e+00
1.320000000000000000e+02,1.000000000000000000e+00
1.330000000000000000e+02,1.000000000000000000e+00
1.340000000000000000e+02,1.000000000000000000e+00
1.350000000000000000e+02,1.000000000000000000e+00
1.360000000000000000e+02,1.000000000000000000e+00
1.370000000000000000e+02,1.000000000000000000e+00
1.380000000000000000e+02,1.000000000000000000e+00
1.390000000000000000e+02,1.000000000000000000e+00
1.400000000000000000e+02,1.000000000000000000e+00
1.410000000000000000e+02,1.000000000000000000e+00
1.420000000000000000e+02,1.000000000000000000e+00
1.430000000000000000e+02,1.000000000000000000e+00
1.440000000000000000e+02,1.000000000000000000e+00
1.450000000000000000e+02,1.000000000000000000e+00
1.460000000000000000e+02,1.000000000000000000e+00
1.470000000000000000e+02,1.000000000000000000e+00
1.480000000000000000e+02,1.000000000000000000e+00
1.490000000000000000e+02,1.000000000000000000e+00
1.500000000000000000e+02,1.000000000000000000e+00
1.510000000000000000e+02,1.000000000000000000e+00
1.520000000000000000e+02,1.000000000000000000e+00
1.530000000000000000e+02,1.000000000000000000e+00
1.540000000000000000e+02,1.000000000000000000e+00
1.550000000000000000e+02,1.000000000000000000e+00
1.560000000000000000e+02,1.000000000000000000e+00
1.570000000000000000e+02,1.000000000000000000e+00
1.580000000000000000e+02,1.000000000000000000e+00
1.590000000000000000e+02,1.000000000000000000e+00
1.600000000000000000e+02,1.000000000000000000e+00
1.610000000000000000e+02,1.000000000000000000e+00
1.620000000000000000e+02,1.000000000000000000e+00
1.630000000000000000e+02,1.000000000000000000e+00
1.640000000000000000e+02,1.000000000000000000e+00
1.650000000000000000e+02,1.000000000000000000e+00
1.660000000000000000e+02,1.000000000000000000e+00
1.670000000000000000e+02,1.000000000000000000e+00
1.680000000000000000e+02,1.000000000000000000e+00
1.690000000000000000e+02,1.000000000000000000e+00
1.700000000000000000e+02,1.000000000000000000e+00
1.710000000000000000e+02,1.000000000000000000e+00
1.720000000000000000e+02,1.000000000000000000e+00
1.730000000000000000e+02,1.000000000000000000e+00
1.740000000000000000e+02,1.000000000000000000e+00
1.750000000000000000e+02,1.000000000000000000e+00
1.760000000000000000e+02,1.000000000000000000e+00
1.770000000000000000e+02,1.000000000000000000e+00
1.780000000000000000e+02,1.000000000000000000e+00
1.790000000000000000e+02,1.000000000000000000e+00
1.800000000000000000e+02,1.000000000000000000e+00
1.810000000000000000e+02,1.000000000000000000e+00
1.820000000000000000e+02,1.000000000000000000e+00
1.830000000000000000e+02,1.000000000000000000e+00
1.840000000000000000e+02,1.000000000000000000e+00
1.850000000000000000e+02,1.000000000000000000e+00
1.860000000000000000e+02,1.000000000000000000e+00
1.870000000000000000e+02,1.000000000000000000e+00
1.880000000000000000e+02,1.000000000000000000e+00
1.890000000000000000e+02,1.000000000000000000e+00
1.900000000000000000e+02,1.000000000000000000e+00
1.910000000000000000e+02,1.000000000000000000e+00
1.920000000000000000e+02,1.000000000000000000e+00
1.930000000000000000e+02,1.000000000000000000e+00
1.940000000000000000e+02,1.000000000000000000e+00
1.950000000000000000e+02,1.000000000000000000e+00
1.960000000000000000e+02,1.000000000000000000e+00
1.970000000000000000e+02,1.000000000000000000e+00
1.980000000000000000e+02,1.000000000000000000e+00
1.990000000000000000e+02,1.000000000000000000e+00
2.000000000000000000e+02,1.000000000000000000e+00
2.010000000000000000e+02,1.000000000000000000e+00
2.020000000000000000e+02,1.000000000000000000e+00
2.030000000000000000e+02,1.000000000000000000e+00
2.040000000000000000e+02,1.000000000000000000e+00
2.050000000000000000e+02,1.000000000000000000e+00
2.060000000000000000e+02,1.000000000000000000e+00
2.070000000000000000e+02,1.000000000000000000e+00
2.080000000000000000e+02,1.000000000000000000e+00
2.090000000000000000e+02,1.000000000000000000e+00
2.100000000000000000e+02,1.000000000000000000e+00
2.110000000000000000e+02,1.000000000000000000e+00
2.120000000000000000e+02,1.000000000000000000e+00
2.130000000000000000e+02,1.000000000000000000e+00
2.140000000000000000e+02,1.000000000000000000e+00
2.150000000000000000e+02,1.000000000000000000e+00
2.160000000000000000e+02,1.000000000000000000e+00
2.170000000000000000e+02,1.000000000000000000e+00
2.180000000000000000e+02,1.000000000000000000e+00
2.190000000000000000e+02,1.000000000000000000e+00
2.200000000000000000e+02,1.000000000000000000e+00
2.210000000000000000e+02,1.000000000000000000e+00
2.220000000000000000e+02,1.000000000000000000e+00
2.230000000000000000e+02,1.000000000000000000e+00
2.240000000000000000e+02,1.000000000000000000e+00
2.250000000000000000e+02,1.000000000000000000e+00
2.260000000000000000e+02,1.000000000000000000e+00
2.270000000000000000e+02,1.000000000000000000e+00
2.280000000000000000e+02,1.000000000000000000e+00
2.290000000000000000e+02,1.000000000000000000e+00
2.300000000000000000e+02,1.000000000000000000e+00
2.310000000000000000e+02,1.000000000000000000e+00
2.320000000000000000e+02,1.000000000000000000e+00
2.330000000000000000e+02,1.000000000000000000e+00
2.340000000000000000e+02,1.000000000000000000e+00
2.350000000000000000e+02,1.000000000000000000e+00
2.360000000000000000e+02,1.000000000000000000e+00
2.370000000000000000e+02,1.000000000000000000e+00
2.380000000000000000e+02,1.000000000000000000e+00
2.390000000000000000e+02,1.000000000000000000e+00
2.400000000000000000e+02,1.000000000000000000e+00
2.410000000000000000e+02,1.000000000000000000e+00
2.420000000000000000e+02,1.000000000000000000e+00
2.430000000000000000e+02,1.000000000000000000e+00
2.440000000000000000e+02,1.000000000000000000e+00
2.450000000000000000e+02,1.000000000000000000e+00
2.460000000000000000e+02,1.000000000000000000e+00
2.470000000000000000e+02,1.000000000000000000e+00
2.480000000000000000e+02,1.000000000000000000e+00
2.490000000000000000e+02,1.000000000000000000e+00
2.500000000000000000e+02,1.000000000000000000e+00
2.510000000000000000e+02,1.000000000000000000e+00
2.520000000000000000e+02,1.000000000000000000e+00
2.530000000000000000e+02,1.000000000000000000e+00
2.540000000000000000e+02,1.000000000000000000e+00
2.550000000000000000e+02,1.000000000000000000e+00
2.560000000000000000e+02,1.000000000000000000e+00
2.570000000000000000e+02,1.000000000000000000e+00
2.580000000000000000e+02,1.000000000000000000e+00
2.590000000000000000e+02,1.000000000000000000e+00
2.600000000000000000e+02,1.000000000000000000e+00
2.610000000000000000e+02,1.000000000000000000e+00
2.620000000000000000e+02,1.000000000000000000e+00
2.630000000000000000e+02,1.000000000000000000e+00
2.640000000000000000e+02,1.000000000000000000e+00
2.650000000000000000e+02,1.000000000000000000e+00
2.660000000000000000e+02,1.000000000000000000e+00
2.670000000000000000e+02,1.000000000000000000e+00
2.680000000000000000e+02,1.000000000000000000e+00
2.690000000000000000e+02,1.000000000000000000e+00
2.700000000000000000e+02,9.999999400000000316e-01
2.710000000000000000e+02,9.999999400000000316e-01
2.720000000000000000e+02,9.999999400000000316e-01
2.730000000000000000e+02,9.999999400000000316e-01
2.740000000000000000e+02,9.999999400000000316e-01
2.750000000000000000e+02,9.999999400000000316e-01
2.760000000000000000e+02,9.999999400000000316e-01
2.770000000000000000e+02,9.999999400000000316e-01
2.780000000000000000e+02,9.999999400000000316e-01
2.790000000000000000e+02,9.999999400000000316e-01
2.800000000000000000e+02,9.999999400000000316e-01
2.810000000000000000e+02,9.999999400000000316e-01
2.820000000000000000e+02,9.999999400000000316e-01
2.830000000000000000e+02,9.999999400000000316e-01
2.840000000000000000e+02,9.999999400000000316e-01
2.850000000000000000e+02,9.999999400000000316e-01
2.860000000000000000e+02,9.999999400000000316e-01
2.870000000000000000e+02,9.999999400000000316e-01
2.880000000000000000e+02,9.999999400000000316e-01
2.890000000000000000e+02,9.999999400000000316e-01
2.900000000000000000e+02,9.999999400000000316e-01
2.910000000000000000e+02,9.999999400000000316e-01
2.920000000000000000e+02,9.999999400000000316e-01
2.930000000000000000e+02,9.999999400000000316e-01
2.940000000000000000e+02,9.999999400000000316e-01
2.950000000000000000e+02,9.999999400000000316e-01
2.960000000000000000e+02,9.999999400000000316e-01
2.970000000000000000e+02,9.999999400000000316e-01
2.980000000000000000e+02,9.999999400000000316e-01
2.990000000000000000e+02,9.999999400000000316e-01
3.000000000000000000e+02,9.999999400000000316e-01
3.010000000000000000e+02,9.999999400000000316e-01
3.020000000000000000e+02,9.999999400000000316e-01
3.030000000000000000e+02,9.999999400000000316e-01
3.040000000000000000e+02,9.999999400000000316e-01
3.050000000000000000e+02,9.999998799999999521e-01
3.060000000000000000e+02,9.999998799999999521e-01
3.070000000000000000e+02,9.999998799999999521e-01
3.080000000000000000e+02,9.999998799999999521e-01
3.090000000000000000e+02,9.999998799999999521e-01
3.100000000000000000e+02,9.999998799999999521e-01
3.110000000000000000e+02,9.999998799999999521e-01
3.120000000000000000e+02,9.999998799999999521e-01
3.130000000000000000e+02,9.999998799999999521e-01
3.140000000000000000e+02,9.999998799999999521e-01
3.150000000000000000e+02,9.999998799999999521e-01
3.160000000000000000e+02,9.999998799999999521e-01
3.170000000000000000e+02,9.999998799999999521e-01
3.180000000000000000e+02,9.999998799999999521e-01
3.190000000000000000e+02,9.999998799999999521e-01
3.200000000000000000e+02,9.999998799999999521e-01
3.210000000000000000e+02,9.999998799999999521e-01
3.220000000000000000e+02,9.999998199999999837e-01
3.230000000000000000e+02,9.999998199999999837e-01
3.240000000000000000e+02,9.999998199999999837e-01
3.250000000000000000e+02,9.999998199999999837e-01
3.260000000000000000e+02,9.999998199999999837e-01
3.270000000000000000e+02,9.999998199999999837e-01
3.280000000000000000e+02,9.999998199999999837e-01
3.290000000000000000e+02,9.999998199999999837e-01
3.300000000000000000e+02,9.999998199999999837e-01
3.310000000000000000e+02,9.999998199999999837e-01
3.320000000000000000e+02,9.999998199999999837e-01
3.330000000000000000e+02,9.999998199999999837e-01
3.340000000000000000e+02,9.999997600000000153e-01
3.350000000000000000e+02,9.999997600000000153e-01
3.360000000000000000e+02,9.999997600000000153e-01
3.370000000000000000e+02,9.999997600000000153e-01
3.380000000000000000e+02,9.999997600000000153e-01
3.390000000000000000e+02,9.999997600000000153e-01
3.400000000000000000e+02,9.999997600000000153e-01
3.410000000000000000e+02,9.999997600000000153e-01
3.420000000000000000e+02,9.999997600000000153e-01
3.430000000000000000e+02,9.999997000000000469e-01
3.440000000000000000e+02,9.999997000000000469e-01
3.450000000000000000e+02,9.999997000000000469e-01
3.460000000000000000e+02,9.999997000000000469e-01
3.470000000000000000e+02,9.999997000000000469e-01
3.480000000000000000e+02,9.999997000000000469e-01
3.490000000000000000e+02,9.999997000000000469e-01
3.500000000000000000e+02,9.999996399999999674e-01
3.510000000000000000e+02,9.999996399999999674e-01
3.520000000000000000e+02,9.999996399999999674e-01
3.530000000000000000e+02,9.999996399999999674e-01
3.540000000000000000e+02,9.999996399999999674e-01
3.550000000000000000e+02,9.999996399999999674e-01
3.560000000000000000e+02,9.999995799999999990e-01
3.570000000000000000e+02,9.999995799999999990e-01
3.580000000000000000e+02,9.999995799999999990e-01
3.590000000000000000e+02,9.999995799999999990e-01
3.600000000000000000e+02,9.999995799999999990e-01
3.610000000000000000e+02,9.999995799999999990e-01
3.620000000000000000e+02,9.999995200000000306e-01
3.630000000000000000e+02,9.999995200000000306e-01
3.640000000000000000e+02,9.999995200000000306e-01
3.650000000000000000e+02,9.999995200000000306e-01
3.660000000000000000e+02,9.999994599999999512e-01
3.670000000000000000e+02,9.999994599999999512e-01
3.680000000000000000e+02,9.999994599999999512e-01
3.690000000000000000e+02,9.999994599999999512e-01
3.700000000000000000e+02,9.999994599999999512e-01
3.710000000000000000e+02,9.999993999999999827e-01
3.720000000000000000e+02,9.999993999999999827e-01
3.730000000000000000e+02,9.999993999999999827e-01
3.740000000000000000e+02,9.999993999999999827e-01
3.750000000000000000e+02,9.999993400000000143e-01
3.760000000000000000e+02,9.999993400000000143e-01
3.770000000000000000e+02,9.999993400000000143e-01
3.780000000000000000e+02,9.999992800000000459e-01
3.790000000000000000e+02,9.999992800000000459e-01
3.800000000000000000e+02,9.999992800000000459e-01
3.810000000000000000e+02,9.999992300000000167e-01
3.820000000000000000e+02,9.999992300000000167e-01
3.830000000000000000e+02,9.999992300000000167e-01
3.840000000000000000e+02,9.999991700000000483e-01
3.850000000000000000e+02,9.999991700000000483e-01
3.860000000000000000e+02,9.999991700000000483e-01
3.870000000000000000e+02,9.999991099999999689e-01
3.880000000000000000e+02,9.999991099999999689e-01
3.890000000000000000e+02,9.999991099999999689e-01
3.900000000000000000e+02,9.999990500000000004e-01
3.910000000000000000e+02,9.999990500000000004e-01
3.920000000000000000e+02,9.999990500000000004e-01
3.930000000000000000e+02,9.999989900000000320e-01
3.940000000000000000e+02,9.999989900000000320e-01
3.950000000000000000e+02,9.999989299999999526e-01
3.960000000000000000e+02,9.999989299999999526e-01
3.970000000000000000e+02,9.999988699999999842e-01
3.980000000000000000e+02,9.999988699999999842e-01
3.990000000000000000e+02,9.999988100000000157e-01
4.000000000000000000e+02,9.999988100000000157e-01
4.010000000000000000e+02,9.999987500000000473e-01
4.020000000000000000e+02,9.999987500000000473e-01
4.030000000000000000e+02,9.999986899999999679e-01
4.040000000000000000e+02,9.999986899999999679e-01
4.050000000000000000e+02,9.999986299999999995e-01
4.060000000000000000e+02,9.999986299999999995e-01
4.070000000000000000e+02,9.999985700000000310e-01
4.080000000000000000e+02,9.999985700000000310e-01
4.090000000000000000e+02,9.999985099999999516e-01
4.100000000000000000e+02,9.999985099999999516e-01
4.110000000000000000e+02,9.999984499999999832e-01
4.120000000000000000e+02,9.999983900000000148e-01
4.130000000000000000e+02,9.999983900000000148e-01
4.140000000000000000e+02,9.999983300000000463e-01
4.150000000000000000e+02,9.999982699999999669e-01
4.160000000000000000e+02,9.999982699999999669e-01
4.170000000000000000e+02,9.999982099999999985e-01
4.180000000000000000e+02,9.999981500000000301e-01
4.190000000000000000e+02,9.999980899999999506e-01
4.200000000000000000e+02,9.999980899999999506e-01
4.210000000000000000e+02,9.999980299999999822e-01
4.220000000000000000e+02,9.999979700000000138e-01
4.230000000000000000e+02,9.999979100000000454e-01
4.240000000000000000e+02,9.999979100000000454e-01
4.250000000000000000e+02,9.999978499999999659e-01
4.260000000000000000e+02,9.999977899999999975e-01
4.270000000000000000e+02,9.999977399999999683e-01
4.280000000000000000e+02,9.999976799999999999e-01
4.290000000000000000e+02,9.999976200000000315e-01
4.300000000000000000e+02,9.999975599999999520e-01
4.310000000000000000e+02,9.999974999999999836e-01
4.320000000000000000e+02,9.999974999999999836e-01
4.330000000000000000e+02,9.999974400000000152e-01
4.340000000000000000e+02,9.999973800000000468e-01
4.350000000000000000e+02,9.999973199999999673e-01
4.360000000000000000e+02,9.999972599999999989e-01
4.370000000000000000e+02,9.999971399999999511e-01
4.380000000000000000e+02,9.999970799999999826e-01
4.390000000000000000e+02,9.999970200000000142e-01
4.400000000000000000e+02,9.999969600000000458e-01
4.410000000000000000e+02,9.999968999999999664e-01
4.420000000000000000e+02,9.999968399999999979e-01
4.430000000000000000e+02,9.999967800000000295e-01
4.440000000000000000e+02,9.999967199999999501e-01
4.450000000000000000e+02,9.999966000000000133e-01
4.460000000000000000e+02,9.999965400000000448e-01
4.470000000000000000e+02,9.999964799999999654e-01
4.480000000000000000e+02,9.999963600000000286e-01
4.490000000000000000e+02,9.999962999999999491e-01
4.500000000000000000e+02,9.999962399999999807e-01
4.510000000000000000e+02,9.999961299999999831e-01
4.520000000000000000e+02,9.999960700000000147e-01
4.530000000000000000e+02,9.999959499999999668e-01
4.540000000000000000e+02,9.999958899999999984e-01
4.550000000000000000e+02,9.999957699999999505e-01
4.560000000000000000e+02,9.999957099999999821e-01
4.570000000000000000e+02,9.999955900000000453e-01
4.580000000000000000e+02,9.999955299999999658e-01
4.590000000000000000e+02,9.999954100000000290e-01
4.600000000000000000e+02,9.999952899999999811e-01
4.610000000000000000e+02,9.999952300000000127e-01
4.620000000000000000e+02,9.999951099999999649e-01
4.630000000000000000e+02,9.999949900000000280e-01
4.640000000000000000e+02,9.999949299999999486e-01
4.650000000000000000e+02,9.999948100000000117e-01
4.660000000000000000e+02,9.999947000000000141e-01
4.670000000000000000e+02,9.999945799999999663e-01
4.680000000000000000e+02,9.999944600000000294e-01
4.690000000000000000e+02,9.999943399999999816e-01
4.700000000000000000e+02,9.999942200000000447e-01
4.710000000000000000e+02,9.999940999999999969e-01
4.720000000000000000e+02,9.999939799999999490e-01
4.730000000000000000e+02,9.999938600000000122e-01
4.740000000000000000e+02,9.999937399999999643e-01
4.750000000000000000e+02,9.999935599999999480e-01
4.760000000000000000e+02,9.999934400000000112e-01
4.770000000000000000e+02,9.999933199999999633e-01
4.780000000000000000e+02,9.999932099999999657e-01
4.790000000000000000e+02,9.999930299999999495e-01
4.800000000000000000e+02,9.999929100000000126e-01
4.810000000000000000e+02,9.999927299999999963e-01
4.820000000000000000e+02,9.999926099999999485e-01
4.830000000000000000e+02,9.999924300000000432e-01
4.840000000000000000e+02,9.999923099999999954e-01
4.850000000000000000e+02,9.999921299999999791e-01
4.860000000000000000e+02,9.999919499999999628e-01
4.870000000000000000e+02,9.999918300000000260e-01
4.880000000000000000e+02,9.999916599999999489e-01
4.890000000000000000e+02,9.999914800000000437e-01
4.900000000000000000e+02,9.999913000000000274e-01
4.910000000000000000e+02,9.999911200000000111e-01
4.920000000000000000e+02,9.999909399999999948e-01
4.930000000000000000e+02,9.999907599999999785e-01
4.940000000000000000e+02,9.999905799999999623e-01
4.950000000000000000e+02,9.999903999999999460e-01
4.960000000000000000e+02,9.999902200000000407e-01
4.970000000000000000e+02,9.999899899999999953e-01
4.980000000000000000e+02,9.999898099999999790e-01
4.990000000000000000e+02,9.999896299999999627e-01
5.000000000000000000e+02,9.999893899999999780e-01
5.010000000000000000e+02,9.999892099999999617e-01
5.020000000000000000e+02,9.999889699999999770e-01
5.030000000000000000e+02,9.999887299999999923e-01
5.040000000000000000e+02,9.999885600000000263e-01
5.050000000000000000e+02,9.999883200000000416e-01
5.060000000000000000e+02,9.999880799999999459e-01
5.070000000000000000e+02,9.999878399999999612e-01
5.080000000000000000e+02,9.999875999999999765e-01
5.090000000000000000e+02,9.999873599999999918e-01
5.100000000000000000e+02,9.999871299999999463e-01
5.110000000000000000e+02,9.999868899999999616e-01
5.120000000000000000e+02,9.999866499999999769e-01
5.130000000000000000e+02,9.999863500000000238e-01
5.140000000000000000e+02,9.999861100000000391e-01
5.150000000000000000e+02,9.999858700000000544e-01
5.160000000000000000e+02,9.999855800000000405e-01
5.170000000000000000e+02,9.999852799999999764e-01
5.180000000000000000e+02,9.999850399999999917e-01
5.190000000000000000e+02,9.999847400000000386e-01
5.200000000000000000e+02,9.999844399999999744e-01
5.210000000000000000e+02,9.999841499999999606e-01
5.220000000000000000e+02,9.999838500000000074e-01
5.230000000000000000e+02,9.999835500000000543e-01
5.240000000000000000e+02,9.999832499999999902e-01
5.250000000000000000e+02,9.999828899999999576e-01
5.260000000000000000e+02,9.999826000000000548e-01
5.270000000000000000e+02,9.999822999999999906e-01
5.280000000000000000e+02,9.999819399999999581e-01
5.290000000000000000e+02,9.999815800000000365e-01
5.300000000000000000e+02,9.999812799999999724e-01
5.310000000000000000e+02,9.999809299999999901e-01
5.320000000000000000e+02,9.999805699999999575e-01
5.330000000000000000e+02,9.999802100000000360e-01
5.340000000000000000e+02,9.999798500000000034e-01
5.350000000000000000e+02,9.999794400000000527e-01
5.360000000000000000e+02,9.999790800000000202e-01
5.370000000000000000e+02,9.999787199999999876e-01
5.380000000000000000e+02,9.999782999999999866e-01
5.390000000000000000e+02,9.999778900000000359e-01
5.400000000000000000e+02,9.999775300000000033e-01
5.410000000000000000e+02,9.999771100000000024e-01
5.420000000000000000e+02,9.999766900000000014e-01
5.430000000000000000e+02,9.999762800000000507e-01
5.440000000000000000e+02,9.999758600000000497e-01
5.450000000000000000e+02,9.999753799999999693e-01
5.460000000000000000e+02,9.999749700000000185e-01
5.470000000000000000e+02,9.999744900000000492e-01
5.480000000000000000e+02,9.999740700000000482e-01
5.490000000000000000e+02,9.999736000000000180e-01
5.500000000000000000e+02,9.999731200000000486e-01
5.510000000000000000e+02,9.999726399999999682e-01
5.520000000000000000e+02,9.999721599999999988e-01
5.530000000000000000e+02,9.999716300000000002e-01
5.540000000000000000e+02,9.999711500000000308e-01
5.550000000000000000e+02,9.999706099999999820e-01
5.560000000000000000e+02,9.999701399999999518e-01
5.570000000000000000e+02,9.999696000000000140e-01
5.580000000000000000e+02,9.999690700000000154e-01
5.590000000000000000e+02,9.999685299999999666e-01
5.600000000000000000e+02,9.999679299999999493e-01
5.610000000000000000e+02,9.999673999999999507e-01
5.620000000000000000e+02,9.999668600000000129e-01
5.630000000000000000e+02,9.999662599999999957e-01
5.640000000000000000e+02,9.999656700000000287e-01
5.650000000000000000e+02,9.999650700000000114e-01
5.660000000000000000e+02,9.999644800000000444e-01
5.670000000000000000e+02,9.999638800000000272e-01
5.680000000000000000e+02,9.999632200000000415e-01
5.690000000000000000e+02,9.999626299999999635e-01
5.700000000000000000e+02,9.999619699999999778e-01
5.710000000000000000e+02,9.999613200000000424e-01
5.720000000000000000e+02,9.999606599999999457e-01
5.730000000000000000e+02,9.999600100000000102e-01
5.740000000000000000e+02,9.999592899999999451e-01
5.750000000000000000e+02,9.999586299999999595e-01
5.760000000000000000e+02,9.999579199999999446e-01
5.770000000000000000e+02,9.999571999999999905e-01
5.780000000000000000e+02,9.999564899999999756e-01
5.790000000000000000e+02,9.999557100000000531e-01
5.800000000000000000e+02,9.999550000000000383e-01
5.810000000000000000e+02,9.999542200000000047e-01
5.820000000000000000e+02,9.999534500000000214e-01
5.830000000000000000e+02,9.999526699999999879e-01
5.840000000000000000e+02,9.999519000000000046e-01
5.850000000000000000e+02,9.999511199999999711e-01
5.860000000000000000e+02,9.999502900000000194e-01
5.870000000000000000e+02,9.999494599999999567e-01
5.880000000000000000e+02,9.999486199999999547e-01
5.890000000000000000e+02,9.999477900000000030e-01
5.900000000000000000e+02,9.999469500000000011e-01
5.910000000000000000e+02,9.999460599999999699e-01
5.920000000000000000e+02,9.999451599999999996e-01
5.930000000000000000e+02,9.999442699999999684e-01
5.940000000000000000e+02,9.999433800000000483e-01
5.950000000000000000e+02,9.999424199999999985e-01
5.960000000000000000e+02,9.999415299999999673e-01
5.970000000000000000e+02,9.999405700000000285e-01
5.980000000000000000e+02,9.999396200000000290e-01
5.990000000000000000e+02,9.999386099999999500e-01