# Time [s], Temperature [C]
1.000000000000000000e+00,2.500000000000000000e+01
2.000000000000000000e+00,2.500000000000000000e+01
3.000000000000000000e+00,2.500000000000000000e+01
4.000000000000000000e+00,2.500000000000000000e+01
5.000000000000000000e+00,2.500000199999999850e+01
6.000000000000000000e+00,2.500001100000000065e+01
7.000000000000000000e+00,2.500005000000000166e+01
8.000000000000000000e+00,2.500017499999999870e+01
9.000000000000000000e+00,2.500054199999999938e+01
1.000000000000000000e+01,2.500144999999999840e+01
1.100000000000000000e+01,2.500345400000000140e+01
1.200000000000000000e+01,2.500743699999999947e+01
1.300000000000000000e+01,2.501469000000000165e+01
1.400000000000000000e+01,2.502693400000000068e+01
1.500000000000000000e+01,2.504632199999999997e+01
1.600000000000000000e+01,2.507539399999999929e+01
1.700000000000000000e+01,2.511700099999999836e+01
1.800000000000000000e+01,2.517422699999999836e+01
1.900000000000000000e+01,2.525029599999999874e+01
2.000000000000000000e+01,2.534848600000000118e+01
2.100000000000000000e+01,2.547205699999999950e+01
2.200000000000000000e+01,2.562416500000000141e+01
2.300000000000000000e+01,2.580780599999999936e+01
2.400000000000000000e+01,2.602584999999999837e+01
2.500000000000000000e+01,2.628089299999999895e+01
2.600000000000000000e+01,2.657529299999999850e+01
2.700000000000000000e+01,2.691117900000000063e+01
2.800000000000000000e+01,2.729044299999999978e+01
2.900000000000000000e+01,2.771467799999999926e+01
3.000000000000000000e+01,2.818525500000000150e+01
3.100000000000000000e+01,2.870332300000000103e+01
3.200000000000000000e+01,2.926974099999999979e+01
3.300000000000000000e+01,2.988523700000000005e+01
3.400000000000000000e+01,3.055026799999999909e+01
3.500000000000000000e+01,3.126509700000000080e+01
3.600000000000000000e+01,3.202988100000000316e+01
3.700000000000000000e+01,3.284453200000000095e+01
3.800000000000000000e+01,3.370885499999999979e+01
3.900000000000000000e+01,3.462255499999999842e+01
4.000000000000000000e+01,3.558534199999999714e+01
4.100000000000000000e+01,3.659635200000000310e+01
4.200000000000000000e+01,3.765505600000000186e+01
4.300000000000000000e+01,3.876077699999999737e+01
4.400000000000000000e+01,3.991256700000000279e+01
4.500000000000000000e+01,4.110951599999999928e+01
4.600000000000000000e+01,4.235058599999999984e+01
4.700000000000000000e+01,4.363462100000000277e+01
4.800000000000000000e+01,4.496054800000000284e+01
4.900000000000000000e+01,4.632727799999999974e+01
5.000000000000000000e+01,4.773345599999999678e+01
5.100000000000000000e+01,4.917786000000000257e+01
5.200000000000000000e+01,5.065922499999999928e+01
5.300000000000000000e+01,5.217596400000000045e+01
5.400000000000000000e+01,5.372682600000000264e+01
5.500000000000000000e+01,5.531055500000000080e+01
5.600000000000000000e+01,5.692569400000000002e+01
5.700000000000000000e+01,5.857083899999999943e+01
5.800000000000000000e+01,6.024470099999999917e+01
5.900000000000000000e+01,6.194613600000000275e+01
6.000000000000000000e+01,6.367333599999999905e+01
6.100000000000000000e+01,6.542522400000000005e+01
6.200000000000000000e+01,6.720075199999999427e+01
6.300000000000000000e+01,6.899827600000000416e+01
6.400000000000000000e+01,7.081696300000000122e+01
6.500000000000000000e+01,7.265543399999999963e+01
6.600000000000000000e+01,7.451264999999999361e+01
6.700000000000000000e+01,7.638746600000000342e+01
6.800000000000000000e+01,7.827898399999999413e+01
6.900000000000000000e+01,8.018590500000000532e+01
7.000000000000000000e+01,8.210744499999999846e+01
7.100000000000000000e+01,8.404292300000000182e+01
7.200000000000000000e+01,8.599131800000000680e+01
7.300000000000000000e+01,8.795176700000000380e+01
7.400000000000000000e+01,8.992345400000000666e+01
7.500000000000000000e+01,9.190561700000000656e+01
7.600000000000000000e+01,9.389753699999999981e+01
7.700000000000000000e+01,9.589836900000000242e+01
7.800000000000000000e+01,9.790785200000000543e+01
7.900000000000000000e+01,9.992504900000000134e+01
8.000000000000000000e+01,1.019494200000000035e+02
8.100000000000000000e+01,1.039804400000000015e+02
8.200000000000000000e+01,1.060174700000000030e+02
8.300000000000000000e+01,1.080599299999999943e+02
8.400000000000000000e+01,1.101073800000000062e+02
8.500000000000000000e+01,1.121592899999999986e+02
8.600000000000000000e+01,1.142151099999999957e+02
8.700000000000000000e+01,1.162745699999999971e+02
8.800000000000000000e+01,1.183372600000000006e+02
8.900000000000000000e+01,1.204025199999999955e+02
9.000000000000000000e+01,1.224700299999999942e+02
9.100000000000000000e+01,1.245394000000000005e+02
9.200000000000000000e+01,1.266101500000000044e+02
9.300000000000000000e+01,1.286820800000000133e+02
9.400000000000000000e+01,1.307548999999999921e+02
9.500000000000000000e+01,1.328281599999999969e+02
9.600000000000000000e+01,1.349016000000000020e+02
9.700000000000000000e+01,1.369748800000000131e+02
9.800000000000000000e+01,1.390476099999999917e+02
9.900000000000000000e+01,1.411195999999999913e+02
1.000000000000000000e+02,1.431905700000000081e+02
1.010000000000000000e+02,1.452601300000000037e+02
1.020000000000000000e+02,1.473280900000000031e+02
1.030000000000000000e+02,1.493943299999999965e+02
1.040000000000000000e+02,1.514584999999999866e+02
1.050000000000000000e+02,1.535203400000000045e+02
1.060000000000000000e+02,1.555796200000000056e+02
1.070000000000000000e+02,1.576359699999999862e+02
1.080000000000000000e+02,1.596892400000000123e+02
1.090000000000000000e+02,1.617392700000000048e+02
1.100000000000000000e+02,1.637858699999999885e+02
1.110000000000000000e+02,1.658288300000000106e+02
1.120000000000000000e+02,1.678680400000000077e+02
1.130000000000000000e+02,1.699031999999999982e+02
1.140000000000000000e+02,1.719342000000000041e+02
1.150000000000000000e+02,1.739607699999999966e+02
1.160000000000000000e+02,1.759827400000000068e+02
1.170000000000000000e+02,1.780008200000000045e+02
1.180000000000000000e+02,1.800135999999999967e+02
1.190000000000000000e+02,1.820211899999999901e+02
1.200000000000000000e+02,1.840235299999999938e+02
1.210000000000000000e+02,1.860205200000000048e+02
1.220000000000000000e+02,1.880119599999999878e+02
1.230000000000000000e+02,1.899977000000000089e+02
1.240000000000000000e+02,1.919780299999999897e+02
1.250000000000000000e+02,1.939528699999999901e+02
1.260000000000000000e+02,1.959221200000000067e+02
1.270000000000000000e+02,1.978857399999999984e+02
1.280000000000000000e+02,1.998436399999999935e+02
1.290000000000000000e+02,2.017956800000000044e+02
1.300000000000000000e+02,2.037415599999999927e+02
1.310000000000000000e+02,2.056812600000000089e+02
1.320000000000000000e+02,2.076146500000000117e+02
1.330000000000000000e+02,2.095414900000000102e+02
1.340000000000000000e+02,2.114617200000000139e+02
1.350000000000000000e+02,2.133750499999999874e+02
1.360000000000000000e+02,2.152812700000000063e+02
1.370000000000000000e+02,2.171803099999999915e+02
1.380000000000000000e+02,2.190719899999999996e+02
1.390000000000000000e+02,2.209561600000000112e+02
1.400000000000000000e+02,2.228326299999999947e+02
1.410000000000000000e+02,2.247011699999999905e+02
1.420000000000000000e+02,2.265617799999999988e+02
1.430000000000000000e+02,2.284140899999999874e+02
1.440000000000000000e+02,2.302582099999999912e+02
1.450000000000000000e+02,2.320938600000000065e+02
1.460000000000000000e+02,2.339206499999999949e+02
1.470000000000000000e+02,2.357387999999999977e+02
1.480000000000000000e+02,2.375478099999999984e+02
1.490000000000000000e+02,2.393477800000000002e+02
1.500000000000000000e+02,2.411382900000000120e+02
1.510000000000000000e+02,2.429194300000000055e+02
1.520000000000000000e+02,2.446907500000000084e+02
1.530000000000000000e+02,2.464523599999999988e+02
1.540000000000000000e+02,2.482038100000000043e+02
1.550000000000000000e+02,2.499450500000000090e+02
1.560000000000000000e+02,2.516758000000000095e+02
1.570000000000000000e+02,2.533957499999999925e+02
1.580000000000000000e+02,2.551048600000000022e+02
1.590000000000000000e+02,2.568029799999999909e+02
1.600000000000000000e+02,2.584897799999999961e+02
1.610000000000000000e+02,2.601649199999999951e+02
1.620000000000000000e+02,2.618282199999999875e+02
1.630000000000000000e+02,2.634794899999999984e+02
1.640000000000000000e+02,2.651183800000000019e+02
1.650000000000000000e+02,2.667446600000000103e+02
1.660000000000000000e+02,2.683580600000000231e+02
1.670000000000000000e+02,2.699582199999999830e+02
1.680000000000000000e+02,2.715448900000000094e+02
1.690000000000000000e+02,2.731177700000000073e+02
1.700000000000000000e+02,2.746764800000000264e+02
1.710000000000000000e+02,2.762207599999999843e+02
1.720000000000000000e+02,2.777500900000000001e+02
1.730000000000000000e+02,2.792640999999999849e+02
1.740000000000000000e+02,2.807624799999999823e+02
1.750000000000000000e+02,2.822448999999999728e+02
1.760000000000000000e+02,2.837108799999999746e+02
1.770000000000000000e+02,2.851597899999999868e+02
1.780000000000000000e+02,2.865915200000000027e+02
1.790000000000000000e+02,2.880054900000000089e+02
1.800000000000000000e+02,2.894012099999999919e+02
1.810000000000000000e+02,2.907783800000000269e+02
1.820000000000000000e+02,2.921363200000000120e+02
1.830000000000000000e+02,2.934746700000000033e+02
1.840000000000000000e+02,2.947948600000000283e+02
1.850000000000000000e+02,2.960943899999999758e+02
1.860000000000000000e+02,2.973736900000000105e+02
1.870000000000000000e+02,2.986328100000000063e+02
1.880000000000000000e+02,2.998715799999999945e+02
1.890000000000000000e+02,3.010893899999999803e+02
1.900000000000000000e+02,3.022854899999999816e+02
1.910000000000000000e+02,3.034590099999999779e+02
1.920000000000000000e+02,3.046093399999999747e+02
1.930000000000000000e+02,3.057359599999999773e+02
1.940000000000000000e+02,3.068384100000000103e+02
1.950000000000000000e+02,3.079165300000000229e+02
1.960000000000000000e+02,3.089701200000000085e+02
1.970000000000000000e+02,3.099991499999999860e+02
1.980000000000000000e+02,3.110036900000000060e+02
1.990000000000000000e+02,3.119836399999999799e+02
2.000000000000000000e+02,3.129390900000000215e+02
2.010000000000000000e+02,3.138703600000000051e+02
2.020000000000000000e+02,3.147775300000000129e+02
2.030000000000000000e+02,3.156607999999999947e+02
2.040000000000000000e+02,3.165206299999999828e+02
2.050000000000000000e+02,3.173572700000000282e+02
2.060000000000000000e+02,3.181711700000000178e+02
2.070000000000000000e+02,3.189627399999999966e+02
2.080000000000000000e+02,3.197325399999999718e+02
2.090000000000000000e+02,3.204810800000000199e+02
2.100000000000000000e+02,3.212090099999999779e+02
2.110000000000000000e+02,3.219169299999999794e+02
2.120000000000000000e+02,3.226056500000000256e+02
2.130000000000000000e+02,3.232759399999999914e+02
2.140000000000000000e+02,3.239284099999999853e+02
2.150000000000000000e+02,3.245638700000000085e+02
2.160000000000000000e+02,3.251831700000000183e+02
2.170000000000000000e+02,3.257871400000000222e+02
2.180000000000000000e+02,3.263766800000000217e+02
2.190000000000000000e+02,3.269525100000000180e+02
2.200000000000000000e+02,3.275156200000000126e+02
2.210000000000000000e+02,3.280667700000000195e+02
2.220000000000000000e+02,3.286068099999999959e+02
2.230000000000000000e+02,3.291365999999999872e+02
2.240000000000000000e+02,3.296568899999999758e+02
2.250000000000000000e+02,3.301686100000000010e+02
2.260000000000000000e+02,3.306724899999999820e+02
2.270000000000000000e+02,3.311692499999999768e+02
2.280000000000000000e+02,3.316596400000000244e+02
2.290000000000000000e+02,3.321445600000000127e+02
2.300000000000000000e+02,3.326245400000000245e+02
2.310000000000000000e+02,3.331466100000000097e+02
2.320000000000000000e+02,3.336450800000000072e+02
2.330000000000000000e+02,3.341342799999999897e+02
2.340000000000000000e+02,3.346175799999999754e+02
2.350000000000000000e+02,3.350949400000000082e+02
2.360000000000000000e+02,3.355674099999999953e+02
2.370000000000000000e+02,3.360362499999999955e+02
2.380000000000000000e+02,3.365028399999999920e+02
2.390000000000000000e+02,3.369682900000000245e+02
2.400000000000000000e+02,3.374338099999999940e+02
2.410000000000000000e+02,3.379003299999999967e+02
2.420000000000000000e+02,3.383681900000000269e+02
2.430000000000000000e+02,3.388380999999999972e+02
2.440000000000000000e+02,3.393106700000000160e+02
2.450000000000000000e+02,3.397863800000000083e+02
2.460000000000000000e+02,3.402655899999999747e+02
2.470000000000000000e+02,3.407487800000000107e+02
2.480000000000000000e+02,3.412360199999999963e+02
2.490000000000000000e+02,3.417277199999999766e+02
2.500000000000000000e+02,3.422244000000000028e+02
2.510000000000000000e+02,3.427261700000000246e+02
2.520000000000000000e+02,3.432331800000000044e+02
2.530000000000000000e+02,3.437460899999999810e+02
2.540000000000000000e+02,3.442647699999999986e+02
2.550000000000000000e+02,3.447898599999999760e+02
2.560000000000000000e+02,3.453215000000000146e+02
2.570000000000000000e+02,3.458598299999999881e+02
2.580000000000000000e+02,3.464053999999999860e+02
2.590000000000000000e+02,3.469584699999999771e+02
2.600000000000000000e+02,3.475192000000000121e+02
2.610000000000000000e+02,3.480882599999999911e+02
2.620000000000000000e+02,3.486656199999999899e+02
2.630000000000000000e+02,3.492518299999999840e+02
2.640000000000000000e+02,3.498468300000000113e+02
2.650000000000000000e+02,3.504515400000000227e+02
2.660000000000000000e+02,3.510658300000000054e+02
2.670000000000000000e+02,3.516906999999999925e+02
2.680000000000000000e+02,3.523262599999999907e+02
2.690000000000000000e+02,3.529728099999999813e+02
2.700000000000000000e+02,3.536308900000000222e+02
2.710000000000000000e+02,3.543012400000000071e+02
2.720000000000000000e+02,3.549838599999999929e+02
2.730000000000000000e+02,3.556796299999999746e+02
2.740000000000000000e+02,3.563890999999999849e+02
2.750000000000000000e+02,3.571126399999999990e+02
2.760000000000000000e+02,3.578509799999999927e+02
2.770000000000000000e+02,3.586048000000000116e+02
2.780000000000000000e+02,3.593747299999999996e+02
2.790000000000000000e+02,3.601613199999999892e+02
2.800000000000000000e+02,3.609656100000000265e+02
2.810000000000000000e+02,3.617882399999999734e+02
2.820000000000000000e+02,3.626301599999999894e+02
2.830000000000000000e+02,3.637570499999999925e+02
2.840000000000000000e+02,3.647080700000000206e+02
2.850000000000000000e+02,3.656233500000000163e+02
2.860000000000000000e+02,3.665510600000000068e+02
2.870000000000000000e+02,3.674994800000000055e+02
2.880000000000000000e+02,3.684739099999999894e+02
2.890000000000000000e+02,3.694760699999999929e+02
2.900000000000000000e+02,3.705085100000000011e+02
2.910000000000000000e+02,3.715722000000000094e+02
2.920000000000000000e+02,3.726682099999999878e+02
2.930000000000000000e+02,3.737981899999999769e+02
2.940000000000000000e+02,3.749632899999999722e+02
2.950000000000000000e+02,3.761653099999999768e+02
2.960000000000000000e+02,3.774056400000000053e+02
2.970000000000000000e+02,3.786861000000000104e+02
2.980000000000000000e+02,3.800087599999999952e+02
2.990000000000000000e+02,3.813752400000000193e+02
3.000000000000000000e+02,3.827880599999999731e+02
3.010000000000000000e+02,3.842485399999999913e+02
3.020000000000000000e+02,3.857592500000000086e+02
3.030000000000000000e+02,3.873223300000000222e+02
3.040000000000000000e+02,3.889398199999999974e+02
3.050000000000000000e+02,3.906135300000000257e+02
3.060000000000000000e+02,3.923452800000000025e+02
3.070000000000000000e+02,3.941364100000000121e+02
3.080000000000000000e+02,3.959884900000000130e+02
3.090000000000000000e+02,3.979029800000000137e+02
3.100000000000000000e+02,3.998796399999999949e+02
3.110000000000000000e+02,4.019182099999999878e+02
3.120000000000000000e+02,4.040175800000000095e+02
3.130000000000000000e+02,4.061759000000000128e+02
3.140000000000000000e+02,4.083907500000000255e+02
3.150000000000000000e+02,4.106576800000000276e+02
3.160000000000000000e+02,4.129718300000000113e+02
3.170000000000000000e+02,4.153265400000000227e+02
3.180000000000000000e+02,4.177146900000000187e+02
3.190000000000000000e+02,4.201274999999999977e+02
3.200000000000000000e+02,4.225563399999999774e+02
3.210000000000000000e+02,4.249914600000000178e+02
3.220000000000000000e+02,4.274239799999999718e+02
3.230000000000000000e+02,4.298449699999999893e+02
3.240000000000000000e+02,4.322465199999999754e+02
3.250000000000000000e+02,4.346218299999999886e+02
3.260000000000000000e+02,4.369650599999999940e+02
3.270000000000000000e+02,4.392725800000000049e+02
3.280000000000000000e+02,4.415410200000000032e+02
3.290000000000000000e+02,4.437684600000000046e+02
3.300000000000000000e+02,4.459551399999999717e+02
3.310000000000000000e+02,4.481004899999999793e+02
3.320000000000000000e+02,4.502057500000000232e+02
3.330000000000000000e+02,4.522719999999999914e+02
3.340000000000000000e+02,4.543010600000000068e+02
3.350000000000000000e+02,4.562943999999999960e+02
3.360000000000000000e+02,4.582538099999999872e+02
3.370000000000000000e+02,4.601813399999999774e+02
3.380000000000000000e+02,4.620786699999999882e+02
3.390000000000000000e+02,4.639472000000000094e+02
3.400000000000000000e+02,4.657883600000000115e+02
3.410000000000000000e+02,4.676039999999999850e+02
3.420000000000000000e+02,4.693949600000000260e+02
3.430000000000000000e+02,4.711627199999999789e+02
3.440000000000000000e+02,4.729079600000000028e+02
3.450000000000000000e+02,4.746318400000000111e+02
3.460000000000000000e+02,4.763351099999999860e+02
3.470000000000000000e+02,4.780184600000000046e+02
3.480000000000000000e+02,4.796827700000000050e+02
3.490000000000000000e+02,4.813287399999999820e+02
3.500000000000000000e+02,4.829569700000000125e+02
3.510000000000000000e+02,4.845679600000000278e+02
3.520000000000000000e+02,4.861621700000000033e+02
3.530000000000000000e+02,4.877400799999999776e+02
3.540000000000000000e+02,4.893021200000000022e+02
3.550000000000000000e+02,4.908488199999999892e+02
3.560000000000000000e+02,4.923804900000000089e+02
3.570000000000000000e+02,4.938974000000000046e+02
3.580000000000000000e+02,4.954000500000000216e+02
3.590000000000000000e+02,4.968887300000000096e+02
3.600000000000000000e+02,4.983639200000000073e+02
3.610000000000000000e+02,4.998257100000000150e+02
3.620000000000000000e+02,5.012744099999999889e+02
3.630000000000000000e+02,5.027105099999999993e+02
3.640000000000000000e+02,5.041339100000000144e+02
3.650000000000000000e+02,5.055452300000000037e+02
3.660000000000000000e+02,5.069442399999999793e+02
3.670000000000000000e+02,5.083315699999999993e+02
3.680000000000000000e+02,5.097069700000000125e+02
3.690000000000000000e+02,5.110711999999999762e+02
3.700000000000000000e+02,5.124240700000000288e+02
3.710000000000000000e+02,5.137658699999999499e+02
3.720000000000000000e+02,5.150968000000000302e+02
3.730000000000000000e+02,5.164169900000000553e+02
3.740000000000000000e+02,5.177265599999999495e+02
3.750000000000000000e+02,5.190258199999999533e+02
3.760000000000000000e+02,5.203145799999999781e+02
3.770000000000000000e+02,5.215932599999999866e+02
3.780000000000000000e+02,5.228619400000000041e+02
3.790000000000000000e+02,5.241207299999999805e+02
3.800000000000000000e+02,5.253698699999999917e+02
3.810000000000000000e+02,5.266092499999999745e+02
3.820000000000000000e+02,5.278390500000000429e+02
3.830000000000000000e+02,5.290595100000000457e+02
3.840000000000000000e+02,5.302706899999999450e+02
3.850000000000000000e+02,5.314726600000000190e+02
3.860000000000000000e+02,5.326655899999999519e+02
3.870000000000000000e+02,5.338494899999999461e+02
3.880000000000000000e+02,5.350245400000000018e+02
3.890000000000000000e+02,5.361907999999999674e+02
3.900000000000000000e+02,5.373483300000000327e+02
3.910000000000000000e+02,5.384971900000000460e+02
3.920000000000000000e+02,5.396375699999999824e+02
3.930000000000000000e+02,5.407695300000000316e+02
3.940000000000000000e+02,5.418930699999999661e+02
3.950000000000000000e+02,5.430082999999999629e+02
3.960000000000000000e+02,5.441153000000000475e+02
3.970000000000000000e+02,5.452141100000000051e+02
3.980000000000000000e+02,5.463049300000000130e+02
3.990000000000000000e+02,5.473877599999999575e+02
4.000000000000000000e+02,5.484626500000000533e+02
4.010000000000000000e+02,5.495296600000000353e+02
4.020000000000000000e+02,5.505889300000000048e+02
4.030000000000000000e+02,5.516404400000000123e+02
4.040000000000000000e+02,5.526843300000000454e+02
4.050000000000000000e+02,5.537205800000000409e+02
4.060000000000000000e+02,5.547492700000000241e+02
4.070000000000000000e+02,5.557705099999999447e+02
4.080000000000000000e+02,5.567843000000000302e+02
4.090000000000000000e+02,5.577908300000000281e+02
4.100000000000000000e+02,5.587900399999999763e+02
4.110000000000000000e+02,5.597819799999999759e+02
4.120000000000000000e+02,5.607667800000000398e+02
4.130000000000000000e+02,5.617445099999999911e+02
4.140000000000000000e+02,5.627150900000000320e+02
4.150000000000000000e+02,5.636787699999999859e+02
4.160000000000000000e+02,5.646353100000000040e+02
4.170000000000000000e+02,5.655850799999999481e+02
4.180000000000000000e+02,5.665280199999999695e+02
4.190000000000000000e+02,5.674640500000000429e+02
4.200000000000000000e+02,5.683934299999999666e+02
4.210000000000000000e+02,5.693162200000000439e+02
4.220000000000000000e+02,5.702322400000000471e+02
4.230000000000000000e+02,5.711416000000000395e+02
4.240000000000000000e+02,5.720444899999999961e+02
4.250000000000000000e+02,5.729410400000000436e+02
4.260000000000000000e+02,5.738310500000000047e+02
4.270000000000000000e+02,5.747146000000000186e+02
4.280000000000000000e+02,5.755918000000000347e+02
4.290000000000000000e+02,5.764627699999999777e+02
4.300000000000000000e+02,5.773275099999999611e+02
4.310000000000000000e+02,5.781859699999999975e+02
4.320000000000000000e+02,5.790383299999999736e+02
4.330000000000000000e+02,5.798844000000000278e+02
4.340000000000000000e+02,5.807244899999999461e+02
4.350000000000000000e+02,5.815585300000000188e+02
4.360000000000000000e+02,5.823866600000000062e+02
4.370000000000000000e+02,5.832087999999999965e+02
4.380000000000000000e+02,5.840250899999999774e+02
4.390000000000000000e+02,5.848355099999999993e+02
4.400000000000000000e+02,5.856402000000000498e+02
4.410000000000000000e+02,5.864390300000000025e+02
4.420000000000000000e+02,5.872320600000000468e+02
4.430000000000000000e+02,5.880194699999999557e+02
4.440000000000000000e+02,5.888012099999999691e+02
4.450000000000000000e+02,5.895772699999999986e+02
4.460000000000000000e+02,5.903478400000000192e+02
4.470000000000000000e+02,5.911128499999999804e+02
4.480000000000000000e+02,5.918724399999999832e+02
4.490000000000000000e+02,5.926265300000000025e+02
4.500000000000000000e+02,5.933751800000000003e+02
4.510000000000000000e+02,5.941184700000000021e+02
4.520000000000000000e+02,5.948563799999999446e+02
4.530000000000000000e+02,5.955889899999999670e+02
4.540000000000000000e+02,5.963164100000000190e+02
4.550000000000000000e+02,5.970386399999999867e+02
4.560000000000000000e+02,5.977555499999999711e+02
4.570000000000000000e+02,5.984674099999999726e+02
4.580000000000000000e+02,5.991741299999999910e+02
4.590000000000000000e+02,5.998757900000000518e+02
4.600000000000000000e+02,6.005723900000000413e+02
4.610000000000000000e+02,6.012640400000000227e+02
4.620000000000000000e+02,6.019506800000000339e+02
4.630000000000000000e+02,6.026323899999999867e+02
4.640000000000000000e+02,6.033092000000000326e+02
4.650000000000000000e+02,6.039811399999999821e+02
4.660000000000000000e+02,6.046482499999999618e+02
4.670000000000000000e+02,6.053106099999999969e+02
4.680000000000000000e+02,6.059682000000000244e+02
4.690000000000000000e+02,6.066210899999999810e+02
4.700000000000000000e+02,6.072692299999999932e+02
4.710000000000000000e+02,6.079127200000000357e+02
4.720000000000000000e+02,6.085515699999999697e+02
4.730000000000000000e+02,6.091859100000000353e+02
4.740000000000000000e+02,6.098156099999999924e+02
4.750000000000000000e+02,6.104407999999999674e+02
4.760000000000000000e+02,6.110615199999999732e+02
4.770000000000000000e+02,6.116777299999999968e+02
4.780000000000000000e+02,6.122895499999999629e+02
4.790000000000000000e+02,6.128969700000000103e+02
4.800000000000000000e+02,6.135000000000000000e+02
4.810000000000000000e+02,6.140986900000000333e+02
4.820000000000000000e+02,6.146931200000000217e+02
4.830000000000000000e+02,6.152832600000000411e+02
4.840000000000000000e+02,6.158691400000000158e+02
4.850000000000000000e+02,6.164507399999999961e+02
4.860000000000000000e+02,6.170282600000000457e+02
4.870000000000000000e+02,6.176015599999999495e+02
4.880000000000000000e+02,6.181707800000000361e+02
4.890000000000000000e+02,6.187358400000000529e+02
4.900000000000000000e+02,6.192968799999999874e+02
4.910000000000000000e+02,6.198538800000000037e+02
4.920000000000000000e+02,6.204068600000000515e+02
4.930000000000000000e+02,6.209558700000000044e+02
4.940000000000000000e+02,6.215009199999999510e+02
4.950000000000000000e+02,6.220419900000000553e+02
4.960000000000000000e+02,6.225792199999999639e+02
4.970000000000000000e+02,6.231126100000000179e+02
4.980000000000000000e+02,6.236421500000000151e+02
4.990000000000000000e+02,6.241678500000000440e+02
5.000000000000000000e+02,6.246897599999999784e+02
5.010000000000000000e+02,6.252078900000000203e+02
5.020000000000000000e+02,6.257222299999999677e+02
5.030000000000000000e+02,6.262329700000000230e+02
5.040000000000000000e+02,6.267399299999999585e+02
5.050000000000000000e+02,6.272433499999999640e+02
5.060000000000000000e+02,6.277430399999999509e+02
5.070000000000000000e+02,6.282391999999999825e+02
5.080000000000000000e+02,6.287317500000000337e+02
5.090000000000000000e+02,6.292207600000000411e+02
5.100000000000000000e+02,6.297062399999999798e+02
5.110000000000000000e+02,6.301882299999999759e+02
5.120000000000000000e+02,6.306667499999999791e+02
5.130000000000000000e+02,6.311417199999999639e+02
5.140000000000000000e+02,6.316133399999999938e+02
5.150000000000000000e+02,6.320815400000000182e+02
5.160000000000000000e+02,6.325463899999999740e+02
5.170000000000000000e+02,6.330078700000000254e+02
5.180000000000000000e+02,6.334660000000000082e+02
5.190000000000000000e+02,6.339208399999999983e+02
5.200000000000000000e+02,6.343723800000000210e+02
5.210000000000000000e+02,6.348206800000000385e+02
5.220000000000000000e+02,6.352657500000000255e+02
5.230000000000000000e+02,6.357075800000000072e+02
5.240000000000000000e+02,6.361462999999999965e+02
5.250000000000000000e+02,6.365817899999999554e+02
5.260000000000000000e+02,6.370141599999999471e+02
5.270000000000000000e+02,6.374433000000000220e+02
5.280000000000000000e+02,6.378694500000000289e+02
5.290000000000000000e+02,6.382924799999999550e+02
5.300000000000000000e+02,6.387124000000000024e+02
5.310000000000000000e+02,6.391293899999999439e+02
5.320000000000000000e+02,6.395433299999999690e+02
5.330000000000000000e+02,6.399542800000000398e+02
5.340000000000000000e+02,6.403622400000000425e+02
5.350000000000000000e+02,6.407672700000000532e+02
5.360000000000000000e+02,6.411693699999999581e+02
5.370000000000000000e+02,6.415685999999999467e+02
5.380000000000000000e+02,6.419648999999999432e+02
5.390000000000000000e+02,6.423583399999999983e+02
5.400000000000000000e+02,6.427489600000000110e+02
5.410000000000000000e+02,6.431367199999999684e+02
5.420000000000000000e+02,6.435216699999999719e+02
5.430000000000000000e+02,6.439038699999999835e+02
5.440000000000000000e+02,6.442832600000000411e+02
5.450000000000000000e+02,6.446599700000000439e+02
5.460000000000000000e+02,6.450339400000000296e+02
5.470000000000000000e+02,6.454051500000000487e+02
5.480000000000000000e+02,6.457736800000000130e+02
5.490000000000000000e+02,6.461395899999999983e+02
5.500000000000000000e+02,6.465028700000000299e+02
5.510000000000000000e+02,6.468634600000000319e+02
5.520000000000000000e+02,6.472214999999999918e+02
5.530000000000000000e+02,6.475769000000000233e+02
5.540000000000000000e+02,6.479297500000000127e+02
5.550000000000000000e+02,6.482800300000000107e+02
5.560000000000000000e+02,6.486277499999999918e+02
5.570000000000000000e+02,6.489729599999999436e+02
5.580000000000000000e+02,6.493157300000000305e+02
5.590000000000000000e+02,6.496560100000000375e+02
5.600000000000000000e+02,6.499938399999999774e+02
5.610000000000000000e+02,6.503291600000000017e+02
5.620000000000000000e+02,6.506620500000000220e+02
5.630000000000000000e+02,6.509925500000000511e+02
5.640000000000000000e+02,6.513206800000000385e+02
5.650000000000000000e+02,6.516464200000000346e+02
5.660000000000000000e+02,6.519697899999999890e+02
5.670000000000000000e+02,6.522908300000000281e+02
5.680000000000000000e+02,6.526095000000000255e+02
5.690000000000000000e+02,6.529258999999999560e+02
5.700000000000000000e+02,6.532400499999999965e+02
5.710000000000000000e+02,6.535518799999999828e+02
5.720000000000000000e+02,6.538613900000000285e+02
5.730000000000000000e+02,6.541686999999999443e+02
5.740000000000000000e+02,6.544738200000000461e+02
5.750000000000000000e+02,6.547767300000000432e+02
5.760000000000000000e+02,6.550773900000000367e+02
5.770000000000000000e+02,6.553758500000000140e+02
5.780000000000000000e+02,6.556722399999999880e+02
5.790000000000000000e+02,6.559664299999999457e+02
5.800000000000000000e+02,6.562584799999999632e+02
5.810000000000000000e+02,6.565484000000000151e+02
5.820000000000000000e+02,6.568363000000000511e+02
5.830000000000000000e+02,6.571220100000000457e+02
5.840000000000000000e+02,6.574057000000000244e+02
5.850000000000000000e+02,6.576873199999999997e+02
5.860000000000000000e+02,6.579668599999999969e+02
5.870000000000000000e+02,6.582443799999999783e+02
5.880000000000000000e+02,6.585199599999999691e+02
5.890000000000000000e+02,6.587935199999999440e+02
5.900000000000000000e+02,6.590650600000000168e+02
5.910000000000000000e+02,6.593346599999999853e+02
5.920000000000000000e+02,6.596022900000000391e+02
5.930000000000000000e+02,6.598679200000000264e+02
5.940000000000000000e+02,6.601317099999999982e+02
5.950000000000000000e+02,6.603935500000000047e+02
5.960000000000000000e+02,6.606535000000000082e+02
5.970000000000000000e+02,6.609115600000000086e+02
5.980000000000000000e+02,6.611677200000000312e+02
5.990000000000000000e+02,6.614220599999999877e+02