# Time [s], Temperature [C]
1.000000000000000000e+00,2.500000000000000000e+01
2.000000000000000000e+00,2.500000000000000000e+01
3.000000000000000000e+00,2.500000000000000000e+01
4.000000000000000000e+00,2.500000000000000000e+01
5.000000000000000000e+00,2.500000400000000056e+01
6.000000000000000000e+00,2.500002900000000139e+01
7.000000000000000000e+00,2.500012600000000162e+01
8.000000000000000000e+00,2.500046499999999838e+01
9.000000000000000000e+00,2.500143200000000121e+01
1.000000000000000000e+01,2.500380300000000133e+01
1.100000000000000000e+01,2.500893200000000149e+01
1.200000000000000000e+01,2.501891900000000035e+01
1.300000000000000000e+01,2.503669700000000020e+01
1.400000000000000000e+01,2.506606499999999826e+01
1.500000000000000000e+01,2.511159500000000122e+01
1.600000000000000000e+01,2.517849899999999863e+01
1.700000000000000000e+01,2.527244900000000172e+01
1.800000000000000000e+01,2.539937400000000167e+01
1.900000000000000000e+01,2.556528700000000143e+01
2.000000000000000000e+01,2.577607899999999930e+01
2.100000000000000000e+01,2.603742599999999996e+01
2.200000000000000000e+01,2.635462599999999966e+01
2.300000000000000000e+01,2.673250000000000171e+01
2.400000000000000000e+01,2.717534600000000111e+01
2.500000000000000000e+01,2.768686500000000095e+01
2.600000000000000000e+01,2.827014199999999988e+01
2.700000000000000000e+01,2.892767299999999864e+01
2.800000000000000000e+01,2.966131000000000029e+01
2.900000000000000000e+01,3.047236099999999936e+01
3.000000000000000000e+01,3.136157800000000151e+01
3.100000000000000000e+01,3.232929200000000236e+01
3.200000000000000000e+01,3.337535100000000199e+01
3.300000000000000000e+01,3.449933999999999656e+01
3.400000000000000000e+01,3.574297700000000333e+01
3.500000000000000000e+01,3.704114500000000021e+01
3.600000000000000000e+01,3.840936299999999903e+01
3.700000000000000000e+01,3.984970100000000315e+01
3.800000000000000000e+01,4.136113699999999938e+01
3.900000000000000000e+01,4.294230999999999909e+01
4.000000000000000000e+01,4.459163699999999864e+01
4.100000000000000000e+01,4.630749099999999885e+01
4.200000000000000000e+01,4.808804299999999898e+01
4.300000000000000000e+01,4.993157999999999674e+01
4.400000000000000000e+01,5.183624600000000271e+01
4.500000000000000000e+01,5.380032700000000290e+01
4.600000000000000000e+01,5.582204399999999822e+01
4.700000000000000000e+01,5.789970399999999984e+01
4.800000000000000000e+01,6.003142900000000282e+01
4.900000000000000000e+01,6.221554199999999923e+01
5.000000000000000000e+01,6.445046200000000169e+01
5.100000000000000000e+01,6.673445100000000707e+01
5.200000000000000000e+01,6.906583399999999529e+01
5.300000000000000000e+01,7.144289399999999546e+01
5.400000000000000000e+01,7.386418199999999956e+01
5.500000000000000000e+01,7.632819399999999632e+01
5.600000000000000000e+01,7.883327500000000043e+01
5.700000000000000000e+01,8.137796799999999564e+01
5.800000000000000000e+01,8.396084600000000364e+01
5.900000000000000000e+01,8.658032199999999534e+01
6.000000000000000000e+01,8.923516100000000506e+01
6.100000000000000000e+01,9.192398099999999772e+01
6.200000000000000000e+01,9.464530899999999747e+01
6.300000000000000000e+01,9.739794200000000046e+01
6.400000000000000000e+01,1.001805399999999935e+02
6.500000000000000000e+01,1.029918700000000058e+02
6.600000000000000000e+01,1.058306999999999931e+02
6.700000000000000000e+01,1.086958699999999993e+02
6.800000000000000000e+01,1.115861400000000003e+02
6.900000000000000000e+01,1.145004600000000039e+02
7.000000000000000000e+01,1.174377000000000066e+02
7.100000000000000000e+01,1.203968700000000069e+02
7.200000000000000000e+01,1.233767100000000028e+02
7.300000000000000000e+01,1.263763399999999990e+02
7.400000000000000000e+01,1.293946100000000001e+02
7.500000000000000000e+01,1.324306599999999889e+02
7.600000000000000000e+01,1.354833999999999889e+02
7.700000000000000000e+01,1.385520500000000084e+02
7.800000000000000000e+01,1.416356199999999887e+02
7.900000000000000000e+01,1.447331499999999949e+02
8.000000000000000000e+01,1.478436399999999935e+02
8.100000000000000000e+01,1.509664500000000089e+02
8.200000000000000000e+01,1.541005999999999858e+02
8.300000000000000000e+01,1.572453199999999924e+02
8.400000000000000000e+01,1.603996400000000051e+02
8.500000000000000000e+01,1.635628800000000069e+02
8.600000000000000000e+01,1.667343099999999936e+02
8.700000000000000000e+01,1.699135400000000118e+02
8.800000000000000000e+01,1.731000799999999913e+02
8.900000000000000000e+01,1.762933800000000133e+02
9.000000000000000000e+01,1.794927700000000073e+02
9.100000000000000000e+01,1.826973999999999876e+02
9.200000000000000000e+01,1.859063899999999876e+02
9.300000000000000000e+01,1.891187700000000120e+02
9.400000000000000000e+01,1.923336600000000089e+02
9.500000000000000000e+01,1.955501899999999864e+02
9.600000000000000000e+01,1.987675900000000127e+02
9.700000000000000000e+01,2.019849100000000135e+02
9.800000000000000000e+01,2.052014000000000067e+02
9.900000000000000000e+01,2.084162900000000036e+02
1.000000000000000000e+02,2.116287700000000029e+02
1.010000000000000000e+02,2.148380600000000129e+02
1.020000000000000000e+02,2.180433999999999912e+02
1.030000000000000000e+02,2.212439899999999966e+02
1.040000000000000000e+02,2.244390400000000056e+02
1.050000000000000000e+02,2.276277300000000139e+02
1.060000000000000000e+02,2.308091699999999946e+02
1.070000000000000000e+02,2.339824500000000000e+02
1.080000000000000000e+02,2.371469600000000071e+02
1.090000000000000000e+02,2.403017399999999952e+02
1.100000000000000000e+02,2.434459099999999978e+02
1.110000000000000000e+02,2.465785099999999943e+02
1.120000000000000000e+02,2.496985300000000052e+02
1.130000000000000000e+02,2.528050499999999943e+02
1.140000000000000000e+02,2.558969400000000007e+02
1.150000000000000000e+02,2.589732099999999946e+02
1.160000000000000000e+02,2.620327100000000087e+02
1.170000000000000000e+02,2.650741300000000251e+02
1.180000000000000000e+02,2.680963100000000168e+02
1.190000000000000000e+02,2.710977800000000002e+02
1.200000000000000000e+02,2.740770899999999983e+02
1.210000000000000000e+02,2.770325000000000273e+02
1.220000000000000000e+02,2.799622499999999832e+02
1.230000000000000000e+02,2.828645000000000209e+02
1.240000000000000000e+02,2.857370900000000233e+02
1.250000000000000000e+02,2.885776999999999930e+02
1.260000000000000000e+02,2.913838499999999954e+02
1.270000000000000000e+02,2.941529199999999946e+02
1.280000000000000000e+02,2.968820200000000114e+02
1.290000000000000000e+02,2.995681200000000217e+02
1.300000000000000000e+02,3.022080399999999827e+02
1.310000000000000000e+02,3.048002900000000182e+02
1.320000000000000000e+02,3.073440200000000004e+02
1.330000000000000000e+02,3.098377100000000155e+02
1.340000000000000000e+02,3.122777699999999754e+02
1.350000000000000000e+02,3.146575300000000084e+02
1.360000000000000000e+02,3.169702500000000214e+02
1.370000000000000000e+02,3.192111499999999751e+02
1.380000000000000000e+02,3.213775299999999788e+02
1.390000000000000000e+02,3.234673799999999915e+02
1.400000000000000000e+02,3.254796400000000176e+02
1.410000000000000000e+02,3.274138199999999870e+02
1.420000000000000000e+02,3.292699600000000260e+02
1.430000000000000000e+02,3.310487699999999904e+02
1.440000000000000000e+02,3.327515900000000215e+02
1.450000000000000000e+02,3.343807100000000219e+02
1.460000000000000000e+02,3.359391499999999837e+02
1.470000000000000000e+02,3.374305699999999888e+02
1.480000000000000000e+02,3.388593099999999936e+02
1.490000000000000000e+02,3.402300399999999740e+02
1.500000000000000000e+02,3.415482799999999770e+02
1.510000000000000000e+02,3.428195200000000114e+02
1.520000000000000000e+02,3.440498000000000047e+02
1.530000000000000000e+02,3.452448400000000106e+02
1.540000000000000000e+02,3.464105200000000195e+02
1.550000000000000000e+02,3.475527000000000157e+02
1.560000000000000000e+02,3.486768200000000206e+02
1.570000000000000000e+02,3.497880599999999731e+02
1.580000000000000000e+02,3.508914800000000014e+02
1.590000000000000000e+02,3.519917300000000182e+02
1.600000000000000000e+02,3.530932300000000055e+02
1.610000000000000000e+02,3.542000699999999824e+02
1.620000000000000000e+02,3.553157699999999863e+02
1.630000000000000000e+02,3.564435100000000034e+02
1.640000000000000000e+02,3.578078600000000051e+02
1.650000000000000000e+02,3.590590500000000134e+02
1.660000000000000000e+02,3.602707500000000209e+02
1.670000000000000000e+02,3.614788500000000226e+02
1.680000000000000000e+02,3.627017200000000230e+02
1.690000000000000000e+02,3.639528799999999933e+02
1.700000000000000000e+02,3.652379199999999742e+02
1.710000000000000000e+02,3.665600000000000023e+02
1.720000000000000000e+02,3.679222100000000069e+02
1.730000000000000000e+02,3.693272699999999986e+02
1.740000000000000000e+02,3.707768599999999992e+02
1.750000000000000000e+02,3.722741100000000074e+02
1.760000000000000000e+02,3.738211699999999951e+02
1.770000000000000000e+02,3.754211399999999799e+02
1.780000000000000000e+02,3.770773599999999988e+02
1.790000000000000000e+02,3.787945300000000088e+02
1.800000000000000000e+02,3.805751300000000015e+02
1.810000000000000000e+02,3.824242899999999850e+02
1.820000000000000000e+02,3.843470800000000054e+02
1.830000000000000000e+02,3.863478700000000003e+02
1.840000000000000000e+02,3.884320099999999911e+02
1.850000000000000000e+02,3.906052900000000250e+02
1.860000000000000000e+02,3.928733799999999974e+02
1.870000000000000000e+02,3.952421600000000126e+02
1.880000000000000000e+02,3.977184399999999869e+02
1.890000000000000000e+02,4.003069199999999910e+02
1.900000000000000000e+02,4.030141600000000039e+02
1.910000000000000000e+02,4.058422899999999913e+02
1.920000000000000000e+02,4.087961399999999799e+02
1.930000000000000000e+02,4.118768000000000029e+02
1.940000000000000000e+02,4.150835599999999772e+02
1.950000000000000000e+02,4.184112499999999955e+02
1.960000000000000000e+02,4.218522899999999822e+02
1.970000000000000000e+02,4.253958700000000022e+02
1.980000000000000000e+02,4.290252100000000155e+02
1.990000000000000000e+02,4.327223200000000247e+02
2.000000000000000000e+02,4.364638699999999858e+02
2.010000000000000000e+02,4.402268399999999815e+02
2.020000000000000000e+02,4.439879799999999932e+02
2.030000000000000000e+02,4.477250099999999975e+02
2.040000000000000000e+02,4.514202599999999848e+02
2.050000000000000000e+02,4.550590500000000134e+02
2.060000000000000000e+02,4.586314399999999978e+02
2.070000000000000000e+02,4.621306200000000217e+02
2.080000000000000000e+02,4.655529199999999719e+02
2.090000000000000000e+02,4.688990800000000263e+02
2.100000000000000000e+02,4.721701400000000035e+02
2.110000000000000000e+02,4.753700600000000236e+02
2.120000000000000000e+02,4.785031099999999924e+02
2.130000000000000000e+02,4.815741600000000062e+02
2.140000000000000000e+02,4.845888699999999858e+02
2.150000000000000000e+02,4.875505099999999743e+02
2.160000000000000000e+02,4.904639900000000239e+02
2.170000000000000000e+02,4.933320899999999938e+02
2.180000000000000000e+02,4.961581100000000220e+02
2.190000000000000000e+02,4.989443099999999731e+02
2.200000000000000000e+02,5.016927800000000275e+02
2.210000000000000000e+02,5.044054300000000239e+02
2.220000000000000000e+02,5.070833700000000022e+02
2.230000000000000000e+02,5.097289099999999848e+02
2.240000000000000000e+02,5.123430799999999863e+02
2.250000000000000000e+02,5.149266400000000203e+02
2.260000000000000000e+02,5.174813199999999824e+02
2.270000000000000000e+02,5.200086099999999760e+02
2.280000000000000000e+02,5.225083600000000388e+02
2.290000000000000000e+02,5.249819300000000339e+02
2.300000000000000000e+02,5.274301799999999503e+02
2.310000000000000000e+02,5.298537000000000035e+02
2.320000000000000000e+02,5.322533600000000433e+02
2.330000000000000000e+02,5.346300700000000461e+02
2.340000000000000000e+02,5.369841300000000501e+02
2.350000000000000000e+02,5.393161599999999680e+02
2.360000000000000000e+02,5.416267699999999650e+02
2.370000000000000000e+02,5.439163800000000037e+02
2.380000000000000000e+02,5.461853599999999460e+02
2.390000000000000000e+02,5.484344499999999698e+02
2.400000000000000000e+02,5.506639400000000251e+02
2.410000000000000000e+02,5.528740199999999732e+02
2.420000000000000000e+02,5.550656699999999546e+02
2.430000000000000000e+02,5.572387700000000450e+02
2.440000000000000000e+02,5.593935500000000047e+02
2.450000000000000000e+02,5.615310100000000375e+02
2.460000000000000000e+02,5.636509999999999536e+02
2.470000000000000000e+02,5.657538500000000568e+02
2.480000000000000000e+02,5.678399699999999939e+02
2.490000000000000000e+02,5.699094199999999546e+02
2.500000000000000000e+02,5.719624000000000024e+02
2.510000000000000000e+02,5.739995099999999866e+02
2.520000000000000000e+02,5.760207500000000209e+02
2.530000000000000000e+02,5.780264300000000048e+02
2.540000000000000000e+02,5.800167199999999639e+02
2.550000000000000000e+02,5.819918800000000374e+02
2.560000000000000000e+02,5.839520899999999983e+02
2.570000000000000000e+02,5.858974600000000237e+02
2.580000000000000000e+02,5.878283699999999499e+02
2.590000000000000000e+02,5.897444500000000289e+02
2.600000000000000000e+02,5.916463599999999587e+02
2.610000000000000000e+02,5.935344199999999546e+02
2.620000000000000000e+02,5.954083299999999781e+02
2.630000000000000000e+02,5.972682499999999663e+02
2.640000000000000000e+02,5.991148100000000341e+02
2.650000000000000000e+02,6.009478100000000040e+02
2.660000000000000000e+02,6.027672099999999773e+02
2.670000000000000000e+02,6.045735499999999547e+02
2.680000000000000000e+02,6.063663900000000240e+02
2.690000000000000000e+02,6.081466100000000097e+02
2.700000000000000000e+02,6.099135700000000497e+02
2.710000000000000000e+02,6.116679699999999684e+02
2.720000000000000000e+02,6.134097900000000436e+02
2.730000000000000000e+02,6.151387899999999718e+02
2.740000000000000000e+02,6.168552899999999681e+02
2.750000000000000000e+02,6.185597500000000082e+02
2.760000000000000000e+02,6.202518900000000031e+02
2.770000000000000000e+02,6.219318799999999783e+02
2.780000000000000000e+02,6.235996699999999464e+02
2.790000000000000000e+02,6.252554900000000089e+02
2.800000000000000000e+02,6.268995400000000018e+02
2.810000000000000000e+02,6.285316800000000512e+02
2.820000000000000000e+02,6.301521000000000186e+02
2.830000000000000000e+02,6.317610499999999547e+02
2.840000000000000000e+02,6.333584600000000364e+02
2.850000000000000000e+02,6.349445200000000114e+02
2.860000000000000000e+02,6.365191700000000310e+02
2.870000000000000000e+02,6.380825200000000450e+02
2.880000000000000000e+02,6.396345199999999522e+02
2.890000000000000000e+02,6.411756599999999935e+02
2.900000000000000000e+02,6.427058100000000422e+02
2.910000000000000000e+02,6.442248499999999467e+02
2.920000000000000000e+02,6.457329700000000230e+02
2.930000000000000000e+02,6.472302899999999681e+02
2.940000000000000000e+02,6.487170399999999972e+02
2.950000000000000000e+02,6.501929900000000089e+02
2.960000000000000000e+02,6.516584500000000162e+02
2.970000000000000000e+02,6.531132800000000316e+02
2.980000000000000000e+02,6.545577399999999670e+02
2.990000000000000000e+02,6.559917599999999993e+02
3.000000000000000000e+02,6.574155899999999519e+02
3.010000000000000000e+02,6.588291600000000017e+02
3.020000000000000000e+02,6.602325399999999718e+02
3.030000000000000000e+02,6.616259800000000268e+02
3.040000000000000000e+02,6.630092799999999897e+02
3.050000000000000000e+02,6.643825699999999870e+02
3.060000000000000000e+02,6.657460899999999810e+02
3.070000000000000000e+02,6.670996699999999464e+02
3.080000000000000000e+02,6.684435399999999845e+02
3.090000000000000000e+02,6.697776499999999942e+02
3.100000000000000000e+02,6.711021700000000010e+02
3.110000000000000000e+02,6.724171099999999797e+02
3.120000000000000000e+02,6.737224099999999680e+02
3.130000000000000000e+02,6.750183700000000044e+02
3.140000000000000000e+02,6.763049300000000130e+02
3.150000000000000000e+02,6.775822799999999688e+02
3.160000000000000000e+02,6.788502200000000357e+02
3.170000000000000000e+02,6.801089500000000498e+02
3.180000000000000000e+02,6.813586400000000367e+02
3.190000000000000000e+02,6.825992400000000089e+02
3.200000000000000000e+02,6.838307499999999663e+02
3.210000000000000000e+02,6.850533400000000483e+02
3.220000000000000000e+02,6.862669100000000526e+02
3.230000000000000000e+02,6.874716200000000299e+02
3.240000000000000000e+02,6.886675999999999931e+02
3.250000000000000000e+02,6.898548600000000306e+02
3.260000000000000000e+02,6.910335099999999784e+02
3.270000000000000000e+02,6.922034300000000258e+02
3.280000000000000000e+02,6.933647499999999582e+02
3.290000000000000000e+02,6.945175799999999526e+02
3.300000000000000000e+02,6.956619899999999461e+02
3.310000000000000000e+02,6.967980999999999767e+02
3.320000000000000000e+02,6.979258999999999560e+02
3.330000000000000000e+02,6.990451699999999846e+02
3.340000000000000000e+02,7.001563099999999622e+02
3.350000000000000000e+02,7.012594000000000278e+02
3.360000000000000000e+02,7.023544299999999794e+02
3.370000000000000000e+02,7.034411000000000058e+02
3.380000000000000000e+02,7.045199599999999691e+02
3.390000000000000000e+02,7.055908799999999701e+02
3.400000000000000000e+02,7.066537499999999454e+02
3.410000000000000000e+02,7.077088599999999587e+02
3.420000000000000000e+02,7.087562299999999595e+02
3.430000000000000000e+02,7.097957199999999602e+02
3.440000000000000000e+02,7.108275800000000118e+02
3.450000000000000000e+02,7.118517500000000382e+02
3.460000000000000000e+02,7.128683499999999640e+02
3.470000000000000000e+02,7.138774399999999787e+02
3.480000000000000000e+02,7.148790299999999434e+02
3.490000000000000000e+02,7.158731699999999591e+02
3.500000000000000000e+02,7.168598600000000260e+02
3.510000000000000000e+02,7.178391699999999673e+02
3.520000000000000000e+02,7.188113399999999729e+02
3.530000000000000000e+02,7.197761799999999539e+02
3.540000000000000000e+02,7.207338300000000118e+02
3.550000000000000000e+02,7.216843300000000454e+02
3.560000000000000000e+02,7.226277499999999918e+02
3.570000000000000000e+02,7.235641500000000406e+02
3.580000000000000000e+02,7.244934700000000021e+02
3.590000000000000000e+02,7.254158899999999903e+02
3.600000000000000000e+02,7.263314199999999801e+02
3.610000000000000000e+02,7.272401099999999587e+02
3.620000000000000000e+02,7.281419700000000148e+02
3.630000000000000000e+02,7.290371699999999464e+02
3.640000000000000000e+02,7.299255399999999554e+02
3.650000000000000000e+02,7.308071300000000292e+02
3.660000000000000000e+02,7.316821899999999914e+02
3.670000000000000000e+02,7.325507199999999557e+02
3.680000000000000000e+02,7.334126599999999598e+02
3.690000000000000000e+02,7.342681900000000041e+02
3.700000000000000000e+02,7.351171900000000505e+02
3.710000000000000000e+02,7.359597800000000234e+02
3.720000000000000000e+02,7.367960199999999986e+02
3.730000000000000000e+02,7.376259800000000268e+02
3.740000000000000000e+02,7.384496500000000196e+02
3.750000000000000000e+02,7.392670900000000529e+02
3.760000000000000000e+02,7.400783699999999499e+02
3.770000000000000000e+02,7.408835400000000391e+02
3.780000000000000000e+02,7.416826200000000426e+02
3.790000000000000000e+02,7.424755900000000111e+02
3.800000000000000000e+02,7.432625699999999824e+02
3.810000000000000000e+02,7.440436399999999821e+02
3.820000000000000000e+02,7.448187299999999595e+02
3.830000000000000000e+02,7.455878900000000158e+02
3.840000000000000000e+02,7.463513199999999870e+02
3.850000000000000000e+02,7.471088899999999740e+02
3.860000000000000000e+02,7.478607200000000148e+02
3.870000000000000000e+02,7.486068099999999959e+02
3.880000000000000000e+02,7.493471700000000055e+02
3.890000000000000000e+02,7.500819699999999557e+02
3.900000000000000000e+02,7.508111599999999726e+02
3.910000000000000000e+02,7.515347299999999677e+02
3.920000000000000000e+02,7.522528700000000299e+02
3.930000000000000000e+02,7.529654500000000326e+02
3.940000000000000000e+02,7.536725500000000011e+02
3.950000000000000000e+02,7.543743899999999485e+02
3.960000000000000000e+02,7.550707999999999629e+02
3.970000000000000000e+02,7.557618400000000065e+02
3.980000000000000000e+02,7.564475700000000415e+02
3.990000000000000000e+02,7.571281699999999546e+02
4.000000000000000000e+02,7.578035300000000234e+02
4.010000000000000000e+02,7.584736299999999574e+02
4.020000000000000000e+02,7.591386099999999715e+02
4.030000000000000000e+02,7.597985200000000532e+02
4.040000000000000000e+02,7.604532500000000255e+02
4.050000000000000000e+02,7.611031500000000278e+02
4.060000000000000000e+02,7.617479899999999589e+02
4.070000000000000000e+02,7.623878200000000334e+02
4.080000000000000000e+02,7.630227700000000368e+02
4.090000000000000000e+02,7.636527700000000323e+02
4.100000000000000000e+02,7.642780800000000454e+02
4.110000000000000000e+02,7.648984400000000505e+02
4.120000000000000000e+02,7.655140400000000227e+02
4.130000000000000000e+02,7.661248799999999619e+02
4.140000000000000000e+02,7.667310199999999440e+02
4.150000000000000000e+02,7.673325200000000450e+02
4.160000000000000000e+02,7.679293199999999615e+02
4.170000000000000000e+02,7.685216100000000097e+02
4.180000000000000000e+02,7.691091900000000123e+02
4.190000000000000000e+02,7.696923199999999952e+02
4.200000000000000000e+02,7.702708699999999453e+02
4.210000000000000000e+02,7.708450299999999515e+02
4.220000000000000000e+02,7.714146700000000010e+02
4.230000000000000000e+02,7.719799799999999550e+02
4.240000000000000000e+02,7.725408300000000281e+02
4.250000000000000000e+02,7.730974099999999680e+02
4.260000000000000000e+02,7.736496600000000399e+02
4.270000000000000000e+02,7.741975700000000415e+02
4.280000000000000000e+02,7.747412699999999859e+02
4.290000000000000000e+02,7.752808199999999488e+02
4.300000000000000000e+02,7.758160400000000436e+02
4.310000000000000000e+02,7.763471700000000055e+02
4.320000000000000000e+02,7.768742099999999482e+02
4.330000000000000000e+02,7.773970900000000483e+02
4.340000000000000000e+02,7.779159499999999525e+02
4.350000000000000000e+02,7.784307900000000018e+02
4.360000000000000000e+02,7.789415900000000192e+02
4.370000000000000000e+02,7.794483599999999797e+02
4.380000000000000000e+02,7.799512300000000096e+02
4.390000000000000000e+02,7.804502599999999575e+02
4.400000000000000000e+02,7.809453099999999495e+02
4.410000000000000000e+02,7.814364600000000110e+02
4.420000000000000000e+02,7.819238299999999526e+02
4.430000000000000000e+02,7.824074100000000271e+02
4.440000000000000000e+02,7.828872699999999440e+02
4.450000000000000000e+02,7.833633399999999938e+02
4.460000000000000000e+02,7.838356300000000374e+02
4.470000000000000000e+02,7.843042599999999993e+02
4.480000000000000000e+02,7.847692299999999932e+02
4.490000000000000000e+02,7.852306499999999687e+02
4.500000000000000000e+02,7.856883500000000140e+02
4.510000000000000000e+02,7.861425199999999904e+02
4.520000000000000000e+02,7.865930799999999863e+02
4.530000000000000000e+02,7.870401600000000144e+02
4.540000000000000000e+02,7.874836999999999989e+02
4.550000000000000000e+02,7.879237699999999904e+02
4.560000000000000000e+02,7.883604100000000017e+02
4.570000000000000000e+02,7.887936399999999821e+02
4.580000000000000000e+02,7.892235100000000330e+02
4.590000000000000000e+02,7.896499000000000024e+02
4.600000000000000000e+02,7.900729999999999791e+02
4.610000000000000000e+02,7.904927400000000262e+02
4.620000000000000000e+02,7.909092399999999543e+02
4.630000000000000000e+02,7.913224500000000035e+02
4.640000000000000000e+02,7.917324200000000474e+02
4.650000000000000000e+02,7.921391599999999471e+02
4.660000000000000000e+02,7.925427200000000312e+02
4.670000000000000000e+02,7.929430499999999711e+02
4.680000000000000000e+02,7.933402700000000323e+02
4.690000000000000000e+02,7.937343100000000504e+02
4.700000000000000000e+02,7.941253100000000131e+02
4.710000000000000000e+02,7.945131800000000339e+02
4.720000000000000000e+02,7.948980099999999993e+02
4.730000000000000000e+02,7.952798500000000104e+02
4.740000000000000000e+02,7.956586300000000165e+02
4.750000000000000000e+02,7.960344199999999546e+02
4.760000000000000000e+02,7.964072899999999890e+02
4.770000000000000000e+02,7.967771599999999808e+02
4.780000000000000000e+02,7.971440999999999804e+02
4.790000000000000000e+02,7.975082400000000007e+02
4.800000000000000000e+02,7.978694500000000289e+02
4.810000000000000000e+02,7.982277800000000525e+02
4.820000000000000000e+02,7.985833099999999831e+02
4.830000000000000000e+02,7.989360400000000482e+02
4.840000000000000000e+02,7.992859499999999571e+02
4.850000000000000000e+02,7.996331800000000385e+02
4.860000000000000000e+02,7.999776000000000522e+02
4.870000000000000000e+02,8.003192699999999604e+02
4.880000000000000000e+02,8.006582600000000411e+02
4.890000000000000000e+02,8.009945699999999533e+02
4.900000000000000000e+02,8.013281899999999496e+02
4.910000000000000000e+02,8.016592399999999543e+02
4.920000000000000000e+02,8.019876100000000179e+02
4.930000000000000000e+02,8.023133500000000140e+02
4.940000000000000000e+02,8.026366000000000440e+02
4.950000000000000000e+02,8.029572100000000319e+02
4.960000000000000000e+02,8.032753300000000536e+02
4.970000000000000000e+02,8.035908799999999701e+02
4.980000000000000000e+02,8.039039299999999457e+02
4.990000000000000000e+02,8.042144799999999805e+02
5.000000000000000000e+02,8.045226400000000240e+02
5.010000000000000000e+02,8.048283099999999877e+02
5.020000000000000000e+02,8.051315299999999979e+02
5.030000000000000000e+02,8.054323699999999917e+02
5.040000000000000000e+02,8.057308299999999690e+02
5.050000000000000000e+02,8.060269200000000183e+02
5.060000000000000000e+02,8.063206199999999626e+02
5.070000000000000000e+02,8.066119999999999663e+02
5.080000000000000000e+02,8.069010600000000295e+02
5.090000000000000000e+02,8.071878100000000131e+02
5.100000000000000000e+02,8.074722900000000436e+02
5.110000000000000000e+02,8.077545199999999568e+02
5.120000000000000000e+02,8.080345499999999674e+02
5.130000000000000000e+02,8.083122600000000375e+02
5.140000000000000000e+02,8.085878300000000536e+02
5.150000000000000000e+02,8.088611499999999523e+02
5.160000000000000000e+02,8.091323200000000497e+02
5.170000000000000000e+02,8.094013099999999667e+02
5.180000000000000000e+02,8.096682100000000446e+02
5.190000000000000000e+02,8.099329199999999673e+02
5.200000000000000000e+02,8.101955600000000004e+02
5.210000000000000000e+02,8.104560500000000047e+02
5.220000000000000000e+02,8.107145400000000564e+02
5.230000000000000000e+02,8.109709500000000162e+02
5.240000000000000000e+02,8.112252799999999979e+02
5.250000000000000000e+02,8.114775399999999763e+02
5.260000000000000000e+02,8.117279099999999517e+02
5.270000000000000000e+02,8.119761999999999489e+02
5.280000000000000000e+02,8.122225300000000061e+02
5.290000000000000000e+02,8.124668599999999969e+02
5.300000000000000000e+02,8.127092300000000478e+02
5.310000000000000000e+02,8.129497099999999818e+02
5.320000000000000000e+02,8.131882900000000518e+02
5.330000000000000000e+02,8.134249300000000176e+02
5.340000000000000000e+02,8.136596700000000055e+02
5.350000000000000000e+02,8.138925199999999904e+02
5.360000000000000000e+02,8.141235400000000482e+02
5.370000000000000000e+02,8.143527199999999766e+02
5.380000000000000000e+02,8.145800199999999904e+02
5.390000000000000000e+02,8.148055399999999509e+02
5.400000000000000000e+02,8.150292399999999589e+02
5.410000000000000000e+02,8.152511600000000271e+02
5.420000000000000000e+02,8.154713100000000168e+02
5.430000000000000000e+02,8.156897000000000162e+02
5.440000000000000000e+02,8.159063099999999622e+02
5.450000000000000000e+02,8.161212199999999939e+02
5.460000000000000000e+02,8.163344100000000481e+02
5.470000000000000000e+02,8.165458399999999983e+02
5.480000000000000000e+02,8.167556200000000217e+02
5.490000000000000000e+02,8.169636799999999539e+02
5.500000000000000000e+02,8.171701000000000477e+02
5.510000000000000000e+02,8.173748799999999619e+02
5.520000000000000000e+02,8.175779999999999745e+02
5.530000000000000000e+02,8.177795399999999972e+02
5.540000000000000000e+02,8.179794299999999794e+02
5.550000000000000000e+02,8.181776700000000346e+02
5.560000000000000000e+02,8.183743299999999863e+02
5.570000000000000000e+02,8.185694600000000491e+02
5.580000000000000000e+02,8.187630000000000337e+02
5.590000000000000000e+02,8.189549600000000282e+02
5.600000000000000000e+02,8.191454499999999825e+02
5.610000000000000000e+02,8.193343499999999722e+02
5.620000000000000000e+02,8.195217300000000478e+02
5.630000000000000000e+02,8.197076399999999694e+02
5.640000000000000000e+02,8.198920299999999770e+02
5.650000000000000000e+02,8.200749499999999443e+02
5.660000000000000000e+02,8.202564099999999598e+02
5.670000000000000000e+02,8.204364000000000487e+02
5.680000000000000000e+02,8.206149299999999585e+02
5.690000000000000000e+02,8.207920500000000175e+02
5.700000000000000000e+02,8.209677100000000110e+02
5.710000000000000000e+02,8.211420299999999770e+02
5.720000000000000000e+02,8.213148800000000165e+02
5.730000000000000000e+02,8.214863900000000285e+02
5.740000000000000000e+02,8.216564899999999625e+02
5.750000000000000000e+02,8.218251999999999953e+02
5.760000000000000000e+02,8.219925500000000511e+02
5.770000000000000000e+02,8.221586300000000165e+02
5.780000000000000000e+02,8.223233000000000175e+02
5.790000000000000000e+02,8.224866899999999532e+02
5.800000000000000000e+02,8.226487399999999752e+02
5.810000000000000000e+02,8.228095100000000457e+02
5.820000000000000000e+02,8.229689300000000003e+02
5.830000000000000000e+02,8.231271400000000540e+02
5.840000000000000000e+02,8.232839999999999918e+02
5.850000000000000000e+02,8.234396400000000540e+02
5.860000000000000000e+02,8.235939899999999625e+02
5.870000000000000000e+02,8.237471299999999701e+02
5.880000000000000000e+02,8.238990499999999884e+02
5.890000000000000000e+02,8.240497400000000425e+02
5.900000000000000000e+02,8.241991600000000062e+02
5.910000000000000000e+02,8.243474700000000439e+02
5.920000000000000000e+02,8.244945099999999911e+02
5.930000000000000000e+02,8.246403800000000501e+02
5.940000000000000000e+02,8.247851000000000568e+02
5.950000000000000000e+02,8.249286499999999478e+02
5.960000000000000000e+02,8.250710400000000391e+02
5.970000000000000000e+02,8.252122200000000021e+02
5.980000000000000000e+02,8.253523599999999760e+02
5.990000000000000000e+02,8.254913299999999481e+02