# Time [s], Temperature [C]
1.000000000000000000e+00,2.500000000000000000e+01
2.000000000000000000e+00,2.500000000000000000e+01
3.000000000000000000e+00,2.500000000000000000e+01
4.000000000000000000e+00,2.500000000000000000e+01
5.000000000000000000e+00,2.500000000000000000e+01
6.000000000000000000e+00,2.500000199999999850e+01
7.000000000000000000e+00,2.500000999999999962e+01
8.000000000000000000e+00,2.500003200000000092e+01
9.000000000000000000e+00,2.500009899999999874e+01
1.000000000000000000e+01,2.500026499999999885e+01
1.100000000000000000e+01,2.500062399999999840e+01
1.200000000000000000e+01,2.500133299999999892e+01
1.300000000000000000e+01,2.500261100000000170e+01
1.400000000000000000e+01,2.500475099999999884e+01
1.500000000000000000e+01,2.500810999999999851e+01
1.600000000000000000e+01,2.501310900000000004e+01
1.700000000000000000e+01,2.502020800000000023e+01
1.800000000000000000e+01,2.502990899999999996e+01
1.900000000000000000e+01,2.504271900000000173e+01
2.000000000000000000e+01,2.505915600000000154e+01
2.100000000000000000e+01,2.507972900000000038e+01
2.200000000000000000e+01,2.510492299999999943e+01
2.300000000000000000e+01,2.513519900000000007e+01
2.400000000000000000e+01,2.517098199999999864e+01
2.500000000000000000e+01,2.521266699999999972e+01
2.600000000000000000e+01,2.526060500000000175e+01
2.700000000000000000e+01,2.531510700000000114e+01
2.800000000000000000e+01,2.537644600000000139e+01
2.900000000000000000e+01,2.544485699999999895e+01
3.000000000000000000e+01,2.552052700000000129e+01
3.100000000000000000e+01,2.560362200000000144e+01
3.200000000000000000e+01,2.569426699999999997e+01
3.300000000000000000e+01,2.579255500000000012e+01
3.400000000000000000e+01,2.589855599999999924e+01
3.500000000000000000e+01,2.601229999999999976e+01
3.600000000000000000e+01,2.613380599999999987e+01
3.700000000000000000e+01,2.626306699999999950e+01
3.800000000000000000e+01,2.640005499999999827e+01
3.900000000000000000e+01,2.654472399999999865e+01
4.000000000000000000e+01,2.669701399999999936e+01
4.100000000000000000e+01,2.685684799999999939e+01
4.200000000000000000e+01,2.702414500000000075e+01
4.300000000000000000e+01,2.719880099999999956e+01
4.400000000000000000e+01,2.738071100000000158e+01
4.500000000000000000e+01,2.756977099999999936e+01
4.600000000000000000e+01,2.776584400000000130e+01
4.700000000000000000e+01,2.796881700000000137e+01
4.800000000000000000e+01,2.817854699999999823e+01
4.900000000000000000e+01,2.839490899999999840e+01
5.000000000000000000e+01,2.861776499999999857e+01
5.100000000000000000e+01,2.884696200000000132e+01
5.200000000000000000e+01,2.908236700000000141e+01
5.300000000000000000e+01,2.932383199999999945e+01
5.400000000000000000e+01,2.957121799999999823e+01
5.500000000000000000e+01,2.982439000000000107e+01
5.600000000000000000e+01,3.008318299999999823e+01
5.700000000000000000e+01,3.034747099999999875e+01
5.800000000000000000e+01,3.061711499999999830e+01
5.900000000000000000e+01,3.089196000000000097e+01
6.000000000000000000e+01,3.117187300000000150e+01
6.100000000000000000e+01,3.145671700000000115e+01
6.200000000000000000e+01,3.174634700000000009e+01
6.300000000000000000e+01,3.204064900000000193e+01
6.400000000000000000e+01,3.233947799999999972e+01
6.500000000000000000e+01,3.264269999999999783e+01
6.600000000000000000e+01,3.295018000000000313e+01
6.700000000000000000e+01,3.326181799999999811e+01
6.800000000000000000e+01,3.357748000000000133e+01
6.900000000000000000e+01,3.389704499999999854e+01
7.000000000000000000e+01,3.422039399999999887e+01
7.100000000000000000e+01,3.454739800000000116e+01
7.200000000000000000e+01,3.487796800000000275e+01
7.300000000000000000e+01,3.521199000000000012e+01
7.400000000000000000e+01,3.554933900000000335e+01
7.500000000000000000e+01,3.588991500000000201e+01
7.600000000000000000e+01,3.623362000000000194e+01
7.700000000000000000e+01,3.658034099999999711e+01
7.800000000000000000e+01,3.692999999999999972e+01
7.900000000000000000e+01,3.728249000000000279e+01
8.000000000000000000e+01,3.763771400000000256e+01
8.100000000000000000e+01,3.799558300000000344e+01
8.200000000000000000e+01,3.835600699999999819e+01
8.300000000000000000e+01,3.871890299999999741e+01
8.400000000000000000e+01,3.908417899999999889e+01
8.500000000000000000e+01,3.945175600000000316e+01
8.600000000000000000e+01,3.982155600000000106e+01
8.700000000000000000e+01,4.019348899999999958e+01
8.800000000000000000e+01,4.056750100000000003e+01
8.900000000000000000e+01,4.094351199999999835e+01
9.000000000000000000e+01,4.132144199999999756e+01
9.100000000000000000e+01,4.170122099999999676e+01
9.200000000000000000e+01,4.208277900000000216e+01
9.300000000000000000e+01,4.246605300000000227e+01
9.400000000000000000e+01,4.285097499999999826e+01
9.500000000000000000e+01,4.323748400000000203e+01
9.600000000000000000e+01,4.362551500000000004e+01
9.700000000000000000e+01,4.401501100000000122e+01
9.800000000000000000e+01,4.440590999999999866e+01
9.900000000000000000e+01,4.479815700000000334e+01
1.000000000000000000e+02,4.519169600000000031e+01
1.010000000000000000e+02,4.558647899999999709e+01
1.020000000000000000e+02,4.598244499999999846e+01
1.030000000000000000e+02,4.637955099999999931e+01
1.040000000000000000e+02,4.677774000000000143e+01
1.050000000000000000e+02,4.717697100000000177e+01
1.060000000000000000e+02,4.757719800000000276e+01
1.070000000000000000e+02,4.797837100000000277e+01
1.080000000000000000e+02,4.838045100000000076e+01
1.090000000000000000e+02,4.878338999999999714e+01
1.100000000000000000e+02,4.918714500000000100e+01
1.110000000000000000e+02,4.959168199999999871e+01
1.120000000000000000e+02,4.999695599999999729e+01
1.130000000000000000e+02,5.040292699999999826e+01
1.140000000000000000e+02,5.080956299999999715e+01
1.150000000000000000e+02,5.121682700000000210e+01
1.160000000000000000e+02,5.162468299999999743e+01
1.170000000000000000e+02,5.203309200000000345e+01
1.180000000000000000e+02,5.244202800000000053e+01
1.190000000000000000e+02,5.285145599999999888e+01
1.200000000000000000e+02,5.326134100000000160e+01
1.210000000000000000e+02,5.367165399999999664e+01
1.220000000000000000e+02,5.408237100000000197e+01
1.230000000000000000e+02,5.449345399999999984e+01
1.240000000000000000e+02,5.490488400000000269e+01
1.250000000000000000e+02,5.531662399999999735e+01
1.260000000000000000e+02,5.572865699999999833e+01
1.270000000000000000e+02,5.614094899999999910e+01
1.280000000000000000e+02,5.655348200000000247e+01
1.290000000000000000e+02,5.696622800000000097e+01
1.300000000000000000e+02,5.737916200000000089e+01
1.310000000000000000e+02,5.779226700000000250e+01
1.320000000000000000e+02,5.820551300000000339e+01
1.330000000000000000e+02,5.861890400000000056e+01
1.340000000000000000e+02,5.903239800000000059e+01
1.350000000000000000e+02,5.944597600000000170e+01
1.360000000000000000e+02,5.985961499999999802e+01
1.370000000000000000e+02,6.027329600000000198e+01
1.380000000000000000e+02,6.068699999999999761e+01
1.390000000000000000e+02,6.110070799999999736e+01
1.400000000000000000e+02,6.151440399999999897e+01
1.410000000000000000e+02,6.192806999999999817e+01
1.420000000000000000e+02,6.234168999999999983e+01
1.430000000000000000e+02,6.275524899999999917e+01
1.440000000000000000e+02,6.316872800000000154e+01
1.450000000000000000e+02,6.358211500000000171e+01
1.460000000000000000e+02,6.399539599999999950e+01
1.470000000000000000e+02,6.440855399999999520e+01
1.480000000000000000e+02,6.482157100000000582e+01
1.490000000000000000e+02,6.523444399999999632e+01
1.500000000000000000e+02,6.564714800000000139e+01
1.510000000000000000e+02,6.605968500000000176e+01
1.520000000000000000e+02,6.647202299999999298e+01
1.530000000000000000e+02,6.688417099999999493e+01
1.540000000000000000e+02,6.729610399999999970e+01
1.550000000000000000e+02,6.770780899999999747e+01
1.560000000000000000e+02,6.811928600000000245e+01
1.570000000000000000e+02,6.853051800000000071e+01
1.580000000000000000e+02,6.894149799999999573e+01
1.590000000000000000e+02,6.935220300000000293e+01
1.600000000000000000e+02,6.976264199999999960e+01
1.610000000000000000e+02,7.017279100000000369e+01
1.620000000000000000e+02,7.058264900000000353e+01
1.630000000000000000e+02,7.099220300000000350e+01
1.640000000000000000e+02,7.140144300000000044e+01
1.650000000000000000e+02,7.181037100000000351e+01
1.660000000000000000e+02,7.221897099999999625e+01
1.670000000000000000e+02,7.262723499999999888e+01
1.680000000000000000e+02,7.303516399999999464e+01
1.690000000000000000e+02,7.344272599999999329e+01
1.700000000000000000e+02,7.384993699999999706e+01
1.710000000000000000e+02,7.425678299999999865e+01
1.720000000000000000e+02,7.466325399999999490e+01
1.730000000000000000e+02,7.506935099999999750e+01
1.740000000000000000e+02,7.547505200000000514e+01
1.750000000000000000e+02,7.588037099999999668e+01
1.760000000000000000e+02,7.628528599999999926e+01
1.770000000000000000e+02,7.668979600000000119e+01
1.780000000000000000e+02,7.709389500000000339e+01
1.790000000000000000e+02,7.749758099999999672e+01
1.800000000000000000e+02,7.790084799999999632e+01
1.810000000000000000e+02,7.830369600000000219e+01
1.820000000000000000e+02,7.870610800000000040e+01
1.830000000000000000e+02,7.910808600000000013e+01
1.840000000000000000e+02,7.950962099999999566e+01
1.850000000000000000e+02,7.991071300000000122e+01
1.860000000000000000e+02,8.031135600000000352e+01
1.870000000000000000e+02,8.071154799999999341e+01
1.880000000000000000e+02,8.111128200000000277e+01
1.890000000000000000e+02,8.151055100000000664e+01
1.900000000000000000e+02,8.190936299999999903e+01
1.910000000000000000e+02,8.230770099999999445e+01
1.920000000000000000e+02,8.270556600000000458e+01
1.930000000000000000e+02,8.310295899999999847e+01
1.940000000000000000e+02,8.349987000000000137e+01
1.950000000000000000e+02,8.389629399999999748e+01
1.960000000000000000e+02,8.429222900000000607e+01
1.970000000000000000e+02,8.468767499999999870e+01
1.980000000000000000e+02,8.508263399999999876e+01
1.990000000000000000e+02,8.547709700000000055e+01
2.000000000000000000e+02,8.587106300000000658e+01
2.010000000000000000e+02,8.626453399999999760e+01
2.020000000000000000e+02,8.665749399999999980e+01
2.030000000000000000e+02,8.704994200000000149e+01
2.040000000000000000e+02,8.744188699999999415e+01
2.050000000000000000e+02,8.783332799999999452e+01
2.060000000000000000e+02,8.822425099999999532e+01
2.070000000000000000e+02,8.861466199999999560e+01
2.080000000000000000e+02,8.900454700000000230e+01
2.090000000000000000e+02,8.939392100000000596e+01
2.100000000000000000e+02,8.978278400000000659e+01
2.110000000000000000e+02,9.017112000000000194e+01
2.120000000000000000e+02,9.055892900000000623e+01
2.130000000000000000e+02,9.094621300000000019e+01
2.140000000000000000e+02,9.133297000000000310e+01
2.150000000000000000e+02,9.171920000000000073e+01
2.160000000000000000e+02,9.210488900000000001e+01
2.170000000000000000e+02,9.249005099999999402e+01
2.180000000000000000e+02,9.287467999999999790e+01
2.190000000000000000e+02,9.325876599999999428e+01
2.200000000000000000e+02,9.364231900000000053e+01
2.210000000000000000e+02,9.402532999999999674e+01
2.220000000000000000e+02,9.440779899999999714e+01
2.230000000000000000e+02,9.478972600000000170e+01
2.240000000000000000e+02,9.517111199999999371e+01
2.250000000000000000e+02,9.555195600000000411e+01
2.260000000000000000e+02,9.593225099999999372e+01
2.270000000000000000e+02,9.631200400000000172e+01
2.280000000000000000e+02,9.669120800000000315e+01
2.290000000000000000e+02,9.706986200000000053e+01
2.300000000000000000e+02,9.744796800000000303e+01
2.310000000000000000e+02,9.782552300000000400e+01
2.320000000000000000e+02,9.820252200000000187e+01
2.330000000000000000e+02,9.857897900000000391e+01
2.340000000000000000e+02,9.895488699999999938e+01
2.350000000000000000e+02,9.933024600000000248e+01
2.360000000000000000e+02,9.970505500000000154e+01
2.370000000000000000e+02,1.000793100000000067e+02
2.380000000000000000e+02,1.004530100000000061e+02
2.390000000000000000e+02,1.008261499999999984e+02
2.400000000000000000e+02,1.011987400000000008e+02
2.410000000000000000e+02,1.015707600000000070e+02
2.420000000000000000e+02,1.019422399999999982e+02
2.430000000000000000e+02,1.023131599999999963e+02
2.440000000000000000e+02,1.026835099999999983e+02
2.450000000000000000e+02,1.030533099999999962e+02
2.460000000000000000e+02,1.034225500000000011e+02
2.470000000000000000e+02,1.037912199999999956e+02
2.480000000000000000e+02,1.041593400000000003e+02
2.490000000000000000e+02,1.045269100000000009e+02
2.500000000000000000e+02,1.048939199999999943e+02
2.510000000000000000e+02,1.052603799999999978e+02
2.520000000000000000e+02,1.056262600000000020e+02
2.530000000000000000e+02,1.059915900000000022e+02
2.540000000000000000e+02,1.063563599999999951e+02
2.550000000000000000e+02,1.067205699999999950e+02
2.560000000000000000e+02,1.070842099999999988e+02
2.570000000000000000e+02,1.074472899999999953e+02
2.580000000000000000e+02,1.078097999999999956e+02
2.590000000000000000e+02,1.081717600000000061e+02
2.600000000000000000e+02,1.085331599999999952e+02
2.610000000000000000e+02,1.088940099999999944e+02
2.620000000000000000e+02,1.092543000000000006e+02
2.630000000000000000e+02,1.096140199999999965e+02
2.640000000000000000e+02,1.099731799999999993e+02
2.650000000000000000e+02,1.103317700000000059e+02
2.660000000000000000e+02,1.106898000000000053e+02
2.670000000000000000e+02,1.110472699999999975e+02
2.680000000000000000e+02,1.114041699999999935e+02
2.690000000000000000e+02,1.117605300000000028e+02
2.700000000000000000e+02,1.121163200000000018e+02
2.710000000000000000e+02,1.124715499999999935e+02
2.720000000000000000e+02,1.128262299999999954e+02
2.730000000000000000e+02,1.131803400000000011e+02
2.740000000000000000e+02,1.135338799999999964e+02
2.750000000000000000e+02,1.138868599999999986e+02
2.760000000000000000e+02,1.142393000000000001e+02
2.770000000000000000e+02,1.145911499999999990e+02
2.780000000000000000e+02,1.149424599999999970e+02
2.790000000000000000e+02,1.152932100000000020e+02
2.800000000000000000e+02,1.156433999999999997e+02
2.810000000000000000e+02,1.159930300000000045e+02
2.820000000000000000e+02,1.163421000000000021e+02
2.830000000000000000e+02,1.166906100000000066e+02
2.840000000000000000e+02,1.170385500000000008e+02
2.850000000000000000e+02,1.173859400000000051e+02
2.860000000000000000e+02,1.177327700000000021e+02
2.870000000000000000e+02,1.180790499999999952e+02
2.880000000000000000e+02,1.184247699999999952e+02
2.890000000000000000e+02,1.187699400000000054e+02
2.900000000000000000e+02,1.191145400000000052e+02
2.910000000000000000e+02,1.194585799999999978e+02
2.920000000000000000e+02,1.198020599999999973e+02
2.930000000000000000e+02,1.201449900000000071e+02
2.940000000000000000e+02,1.204873699999999985e+02
2.950000000000000000e+02,1.208291899999999970e+02
2.960000000000000000e+02,1.211704600000000056e+02
2.970000000000000000e+02,1.215111700000000070e+02
2.980000000000000000e+02,1.218513300000000044e+02
2.990000000000000000e+02,1.221909200000000055e+02
3.000000000000000000e+02,1.225299600000000027e+02
3.010000000000000000e+02,1.228684599999999989e+02
3.020000000000000000e+02,1.232064100000000053e+02
3.030000000000000000e+02,1.235437900000000013e+02
3.040000000000000000e+02,1.238806199999999933e+02
3.050000000000000000e+02,1.242168999999999954e+02
3.060000000000000000e+02,1.245526299999999935e+02
3.070000000000000000e+02,1.248877999999999986e+02
3.080000000000000000e+02,1.252224300000000028e+02
3.090000000000000000e+02,1.255564999999999998e+02
3.100000000000000000e+02,1.258900200000000069e+02
3.110000000000000000e+02,1.262229999999999990e+02
3.120000000000000000e+02,1.265554199999999980e+02
3.130000000000000000e+02,1.268872899999999930e+02
3.140000000000000000e+02,1.272186200000000014e+02
3.150000000000000000e+02,1.275494000000000057e+02
3.160000000000000000e+02,1.278796300000000059e+02
3.170000000000000000e+02,1.282093000000000131e+02
3.180000000000000000e+02,1.285384500000000116e+02
3.190000000000000000e+02,1.288670299999999997e+02
3.200000000000000000e+02,1.291950799999999902e+02
3.210000000000000000e+02,1.295225800000000049e+02
3.220000000000000000e+02,1.298495299999999872e+02
3.230000000000000000e+02,1.301759299999999939e+02
3.240000000000000000e+02,1.305017899999999997e+02
3.250000000000000000e+02,1.308271200000000078e+02
3.260000000000000000e+02,1.311518900000000087e+02
3.270000000000000000e+02,1.314761200000000088e+02
3.280000000000000000e+02,1.317998000000000047e+02
3.290000000000000000e+02,1.321229600000000062e+02
3.300000000000000000e+02,1.324455600000000004e+02
3.310000000000000000e+02,1.327676199999999938e+02
3.320000000000000000e+02,1.330891599999999926e+02
3.330000000000000000e+02,1.334101300000000094e+02
3.340000000000000000e+02,1.337305800000000033e+02
3.350000000000000000e+02,1.340504799999999932e+02
3.360000000000000000e+02,1.343698400000000106e+02
3.370000000000000000e+02,1.346886599999999987e+02
3.380000000000000000e+02,1.350069399999999860e+02
3.390000000000000000e+02,1.353246800000000007e+02
3.400000000000000000e+02,1.356419099999999958e+02
3.410000000000000000e+02,1.359585899999999867e+02
3.420000000000000000e+02,1.362747200000000021e+02
3.430000000000000000e+02,1.365903199999999913e+02
3.440000000000000000e+02,1.369053800000000081e+02
3.450000000000000000e+02,1.372199200000000019e+02
3.460000000000000000e+02,1.375339400000000012e+02
3.470000000000000000e+02,1.378473999999999933e+02
3.480000000000000000e+02,1.381603200000000129e+02
3.490000000000000000e+02,1.384727200000000096e+02
3.500000000000000000e+02,1.387845900000000086e+02
3.510000000000000000e+02,1.390959300000000098e+02
3.520000000000000000e+02,1.394067200000000071e+02
3.530000000000000000e+02,1.397170000000000130e+02
3.540000000000000000e+02,1.400267499999999927e+02
3.550000000000000000e+02,1.403359700000000032e+02
3.560000000000000000e+02,1.406446500000000128e+02
3.570000000000000000e+02,1.409527999999999963e+02
3.580000000000000000e+02,1.412604399999999885e+02
3.590000000000000000e+02,1.415675500000000113e+02
3.600000000000000000e+02,1.418741300000000081e+02
3.610000000000000000e+02,1.421801800000000071e+02
3.620000000000000000e+02,1.424857000000000085e+02
3.630000000000000000e+02,1.427906999999999869e+02
3.640000000000000000e+02,1.430951699999999960e+02
3.650000000000000000e+02,1.433991200000000106e+02
3.660000000000000000e+02,1.437025500000000022e+02
3.670000000000000000e+02,1.440054599999999994e+02
3.680000000000000000e+02,1.443078500000000020e+02
3.690000000000000000e+02,1.446097000000000037e+02
3.700000000000000000e+02,1.449110300000000109e+02
3.710000000000000000e+02,1.452118499999999983e+02
3.720000000000000000e+02,1.455121499999999912e+02
3.730000000000000000e+02,1.458119000000000085e+02
3.740000000000000000e+02,1.461111799999999903e+02
3.750000000000000000e+02,1.464099099999999964e+02
3.760000000000000000e+02,1.467081300000000113e+02
3.770000000000000000e+02,1.470058300000000031e+02
3.780000000000000000e+02,1.473030100000000004e+02
3.790000000000000000e+02,1.475996700000000033e+02
3.800000000000000000e+02,1.478958299999999895e+02
3.810000000000000000e+02,1.481914500000000032e+02
3.820000000000000000e+02,1.484865700000000004e+02
3.830000000000000000e+02,1.487811900000000094e+02
3.840000000000000000e+02,1.490752699999999891e+02
3.850000000000000000e+02,1.493688500000000090e+02
3.860000000000000000e+02,1.496619100000000060e+02
3.870000000000000000e+02,1.499544699999999864e+02
3.880000000000000000e+02,1.502465100000000007e+02
3.890000000000000000e+02,1.505380399999999952e+02
3.900000000000000000e+02,1.508290599999999984e+02
3.910000000000000000e+02,1.511195500000000038e+02
3.920000000000000000e+02,1.514095499999999959e+02
3.930000000000000000e+02,1.516990499999999997e+02
3.940000000000000000e+02,1.519880200000000059e+02
3.950000000000000000e+02,1.522764999999999986e+02
3.960000000000000000e+02,1.525644700000000000e+02
3.970000000000000000e+02,1.528519300000000101e+02
3.980000000000000000e+02,1.531388699999999972e+02
3.990000000000000000e+02,1.534253199999999993e+02
4.000000000000000000e+02,1.537112700000000132e+02
4.010000000000000000e+02,1.539967000000000041e+02
4.020000000000000000e+02,1.542816500000000133e+02
4.030000000000000000e+02,1.545660699999999963e+02
4.040000000000000000e+02,1.548499899999999911e+02
4.050000000000000000e+02,1.551334200000000010e+02
4.060000000000000000e+02,1.554163499999999942e+02
4.070000000000000000e+02,1.556987599999999929e+02
4.080000000000000000e+02,1.559806800000000067e+02
4.090000000000000000e+02,1.562621000000000038e+02
4.100000000000000000e+02,1.565430299999999875e+02
4.110000000000000000e+02,1.568234400000000051e+02
4.120000000000000000e+02,1.571033600000000092e+02
4.130000000000000000e+02,1.573827799999999968e+02
4.140000000000000000e+02,1.576617099999999994e+02
4.150000000000000000e+02,1.579401400000000137e+02
4.160000000000000000e+02,1.582180799999999863e+02
4.170000000000000000e+02,1.584955099999999959e+02
4.180000000000000000e+02,1.587724599999999953e+02
4.190000000000000000e+02,1.590489000000000033e+02
4.200000000000000000e+02,1.593248600000000010e+02
4.210000000000000000e+02,1.596003300000000138e+02
4.220000000000000000e+02,1.598752900000000068e+02
4.230000000000000000e+02,1.601497699999999895e+02
4.240000000000000000e+02,1.604237500000000125e+02
4.250000000000000000e+02,1.606972499999999968e+02
4.260000000000000000e+02,1.609702499999999930e+02
4.270000000000000000e+02,1.612427500000000009e+02
4.280000000000000000e+02,1.615147900000000050e+02
4.290000000000000000e+02,1.617863199999999892e+02
4.300000000000000000e+02,1.620573599999999885e+02
4.310000000000000000e+02,1.623279300000000092e+02
4.320000000000000000e+02,1.625979900000000100e+02
4.330000000000000000e+02,1.628675800000000038e+02
4.340000000000000000e+02,1.631366700000000094e+02
4.350000000000000000e+02,1.634052900000000079e+02
4.360000000000000000e+02,1.636734199999999930e+02
4.370000000000000000e+02,1.639410599999999931e+02
4.380000000000000000e+02,1.642082100000000082e+02
4.390000000000000000e+02,1.644748800000000131e+02
4.400000000000000000e+02,1.647410700000000077e+02
4.410000000000000000e+02,1.650067899999999952e+02
4.420000000000000000e+02,1.652720199999999977e+02
4.430000000000000000e+02,1.655367699999999900e+02
4.440000000000000000e+02,1.658010400000000004e+02
4.450000000000000000e+02,1.660648199999999974e+02
4.460000000000000000e+02,1.663281399999999906e+02
4.470000000000000000e+02,1.665909599999999955e+02
4.480000000000000000e+02,1.668533199999999965e+02
4.490000000000000000e+02,1.671151900000000126e+02
4.500000000000000000e+02,1.673765899999999931e+02
4.510000000000000000e+02,1.676375099999999918e+02
4.520000000000000000e+02,1.678979600000000119e+02
4.530000000000000000e+02,1.681579299999999932e+02
4.540000000000000000e+02,1.684174199999999928e+02
4.550000000000000000e+02,1.686764499999999884e+02
4.560000000000000000e+02,1.689350000000000023e+02
4.570000000000000000e+02,1.691930700000000058e+02
4.580000000000000000e+02,1.694506700000000023e+02
4.590000000000000000e+02,1.697077899999999886e+02
4.600000000000000000e+02,1.699644600000000025e+02
4.610000000000000000e+02,1.702206600000000094e+02
4.620000000000000000e+02,1.704763599999999997e+02
4.630000000000000000e+02,1.707316099999999892e+02
4.640000000000000000e+02,1.709863900000000001e+02
4.650000000000000000e+02,1.712407100000000071e+02
4.660000000000000000e+02,1.714945500000000038e+02
4.670000000000000000e+02,1.717479199999999935e+02
4.680000000000000000e+02,1.720008400000000108e+02
4.690000000000000000e+02,1.722532799999999895e+02
4.700000000000000000e+02,1.725052599999999927e+02
4.710000000000000000e+02,1.727567699999999888e+02
4.720000000000000000e+02,1.730078100000000063e+02
4.730000000000000000e+02,1.732584099999999978e+02
4.740000000000000000e+02,1.735085300000000075e+02
4.750000000000000000e+02,1.737581800000000101e+02
4.760000000000000000e+02,1.740073899999999867e+02
4.770000000000000000e+02,1.742561200000000099e+02
4.780000000000000000e+02,1.745043900000000008e+02
4.790000000000000000e+02,1.747522099999999909e+02
4.800000000000000000e+02,1.749995600000000024e+02
4.810000000000000000e+02,1.752464600000000132e+02
4.820000000000000000e+02,1.754928899999999885e+02
4.830000000000000000e+02,1.757388799999999947e+02
4.840000000000000000e+02,1.759843899999999906e+02
4.850000000000000000e+02,1.762294599999999889e+02
4.860000000000000000e+02,1.764740600000000086e+02
4.870000000000000000e+02,1.767182200000000023e+02
4.880000000000000000e+02,1.769619099999999889e+02
4.890000000000000000e+02,1.772051500000000033e+02
4.900000000000000000e+02,1.774479499999999916e+02
4.910000000000000000e+02,1.776902800000000013e+02
4.920000000000000000e+02,1.779321600000000103e+02
4.930000000000000000e+02,1.781735799999999870e+02
4.940000000000000000e+02,1.784145699999999977e+02
4.950000000000000000e+02,1.786550900000000013e+02
4.960000000000000000e+02,1.788951700000000073e+02
4.970000000000000000e+02,1.791348000000000127e+02
4.980000000000000000e+02,1.793739600000000110e+02
4.990000000000000000e+02,1.796126999999999896e+02
5.000000000000000000e+02,1.798509799999999927e+02
5.010000000000000000e+02,1.800888099999999952e+02
5.020000000000000000e+02,1.803261899999999969e+02
5.030000000000000000e+02,1.805631300000000010e+02
5.040000000000000000e+02,1.807996200000000044e+02
5.050000000000000000e+02,1.810356800000000135e+02
5.060000000000000000e+02,1.812712699999999870e+02
5.070000000000000000e+02,1.815064199999999914e+02
5.080000000000000000e+02,1.817411299999999983e+02
5.090000000000000000e+02,1.819754000000000076e+02
5.100000000000000000e+02,1.822092299999999909e+02
5.110000000000000000e+02,1.824426300000000083e+02
5.120000000000000000e+02,1.826755699999999933e+02
5.130000000000000000e+02,1.829080700000000093e+02
5.140000000000000000e+02,1.831401400000000024e+02
5.150000000000000000e+02,1.833717499999999916e+02
5.160000000000000000e+02,1.836029399999999896e+02
5.170000000000000000e+02,1.838336899999999901e+02
5.180000000000000000e+02,1.840639999999999930e+02
5.190000000000000000e+02,1.842938699999999983e+02
5.200000000000000000e+02,1.845233000000000061e+02
5.210000000000000000e+02,1.847522999999999911e+02
5.220000000000000000e+02,1.849808700000000101e+02
5.230000000000000000e+02,1.852090000000000032e+02
5.240000000000000000e+02,1.854366899999999987e+02
5.250000000000000000e+02,1.856639600000000030e+02
5.260000000000000000e+02,1.858907800000000066e+02
5.270000000000000000e+02,1.861171699999999873e+02
5.280000000000000000e+02,1.863431199999999990e+02
5.290000000000000000e+02,1.865686599999999942e+02
5.300000000000000000e+02,1.867937599999999918e+02
5.310000000000000000e+02,1.870184299999999951e+02
5.320000000000000000e+02,1.872426800000000071e+02
5.330000000000000000e+02,1.874664899999999932e+02
5.340000000000000000e+02,1.876898700000000133e+02
5.350000000000000000e+02,1.879128100000000074e+02
5.360000000000000000e+02,1.881353300000000104e+02
5.370000000000000000e+02,1.883574399999999969e+02
5.380000000000000000e+02,1.885791000000000111e+02
5.390000000000000000e+02,1.888003500000000088e+02
5.400000000000000000e+02,1.890211799999999869e+02
5.410000000000000000e+02,1.892415799999999990e+02
5.420000000000000000e+02,1.894615499999999884e+02
5.430000000000000000e+02,1.896811099999999897e+02
5.440000000000000000e+02,1.899002199999999903e+02
5.450000000000000000e+02,1.901189300000000060e+02
5.460000000000000000e+02,1.903371999999999957e+02
5.470000000000000000e+02,1.905550700000000006e+02
5.480000000000000000e+02,1.907725100000000111e+02
5.490000000000000000e+02,1.909895199999999988e+02
5.500000000000000000e+02,1.912061199999999985e+02
5.510000000000000000e+02,1.914223200000000134e+02
5.520000000000000000e+02,1.916380800000000022e+02
5.530000000000000000e+02,1.918534400000000062e+02
5.540000000000000000e+02,1.920683600000000126e+02
5.550000000000000000e+02,1.922828800000000058e+02
5.560000000000000000e+02,1.924969800000000077e+02
5.570000000000000000e+02,1.927106599999999901e+02
5.580000000000000000e+02,1.929239200000000096e+02
5.590000000000000000e+02,1.931367799999999875e+02
5.600000000000000000e+02,1.933492300000000057e+02
5.610000000000000000e+02,1.935612500000000011e+02
5.620000000000000000e+02,1.937728600000000085e+02
5.630000000000000000e+02,1.939840700000000027e+02
5.640000000000000000e+02,1.941948500000000024e+02
5.650000000000000000e+02,1.944052399999999921e+02
5.660000000000000000e+02,1.946152199999999937e+02
5.670000000000000000e+02,1.948247800000000041e+02
5.680000000000000000e+02,1.950339400000000012e+02
5.690000000000000000e+02,1.952426800000000071e+02
5.700000000000000000e+02,1.954510199999999998e+02
5.710000000000000000e+02,1.956589500000000044e+02
5.720000000000000000e+02,1.958664699999999925e+02
5.730000000000000000e+02,1.960735899999999958e+02
5.740000000000000000e+02,1.962803000000000111e+02
5.750000000000000000e+02,1.964866000000000099e+02
5.760000000000000000e+02,1.966924999999999955e+02
5.770000000000000000e+02,1.968980099999999993e+02
5.780000000000000000e+02,1.971031000000000120e+02
5.790000000000000000e+02,1.973077999999999861e+02
5.800000000000000000e+02,1.975121000000000038e+02
5.810000000000000000e+02,1.977159900000000050e+02
5.820000000000000000e+02,1.979194799999999930e+02
5.830000000000000000e+02,1.981225599999999929e+02
5.840000000000000000e+02,1.983252599999999859e+02
5.850000000000000000e+02,1.985275399999999877e+02
5.860000000000000000e+02,1.987294300000000078e+02
5.870000000000000000e+02,1.989309199999999862e+02
5.880000000000000000e+02,1.991320200000000114e+02
5.890000000000000000e+02,1.993327199999999948e+02
5.900000000000000000e+02,1.995330199999999934e+02
5.910000000000000000e+02,1.997329300000000103e+02
5.920000000000000000e+02,1.999324300000000108e+02
5.930000000000000000e+02,2.001315600000000074e+02
5.940000000000000000e+02,2.003302799999999877e+02
5.950000000000000000e+02,2.005286099999999863e+02
5.960000000000000000e+02,2.007265500000000031e+02
5.970000000000000000e+02,2.009240900000000067e+02
5.980000000000000000e+02,2.011212500000000034e+02
5.990000000000000000e+02,2.013180099999999868e+02