# Time [s], Temperature [C]
1.000000000000000000e+00,2.500000000000000000e+01
2.000000000000000000e+00,2.500000000000000000e+01
3.000000000000000000e+00,2.500000000000000000e+01
4.000000000000000000e+00,2.500000000000000000e+01
5.000000000000000000e+00,2.500000000000000000e+01
6.000000000000000000e+00,2.500000199999999850e+01
7.000000000000000000e+00,2.500000800000000112e+01
8.000000000000000000e+00,2.500002900000000139e+01
9.000000000000000000e+00,2.500009000000000015e+01
1.000000000000000000e+01,2.500023799999999952e+01
1.100000000000000000e+01,2.500056800000000123e+01
1.200000000000000000e+01,2.500122100000000103e+01
1.300000000000000000e+01,2.500240700000000160e+01
1.400000000000000000e+01,2.500440400000000096e+01
1.500000000000000000e+01,2.500756300000000110e+01
1.600000000000000000e+01,2.501228899999999911e+01
1.700000000000000000e+01,2.501903899999999936e+01
1.800000000000000000e+01,2.502830700000000164e+01
1.900000000000000000e+01,2.504060600000000036e+01
2.000000000000000000e+01,2.505645399999999867e+01
2.100000000000000000e+01,2.507636799999999866e+01
2.200000000000000000e+01,2.510084499999999963e+01
2.300000000000000000e+01,2.513035800000000108e+01
2.400000000000000000e+01,2.516535400000000067e+01
2.500000000000000000e+01,2.520624199999999959e+01
2.600000000000000000e+01,2.525339100000000059e+01
2.700000000000000000e+01,2.530713799999999836e+01
2.800000000000000000e+01,2.536777100000000118e+01
2.900000000000000000e+01,2.543554900000000174e+01
3.000000000000000000e+01,2.551068100000000172e+01
3.100000000000000000e+01,2.559334600000000037e+01
3.200000000000000000e+01,2.568368900000000110e+01
3.300000000000000000e+01,2.578182800000000086e+01
3.400000000000000000e+01,2.588784800000000175e+01
3.500000000000000000e+01,2.600179899999999833e+01
3.600000000000000000e+01,2.612370299999999901e+01
3.700000000000000000e+01,2.625357999999999947e+01
3.800000000000000000e+01,2.639141499999999851e+01
3.900000000000000000e+01,2.653715899999999905e+01
4.000000000000000000e+01,2.669077700000000064e+01
4.100000000000000000e+01,2.685220100000000087e+01
4.200000000000000000e+01,2.702135499999999979e+01
4.300000000000000000e+01,2.719814500000000024e+01
4.400000000000000000e+01,2.738245799999999974e+01
4.500000000000000000e+01,2.757420899999999975e+01
4.600000000000000000e+01,2.777326800000000162e+01
4.700000000000000000e+01,2.797951899999999981e+01
4.800000000000000000e+01,2.819283899999999932e+01
4.900000000000000000e+01,2.841308000000000078e+01
5.000000000000000000e+01,2.864012500000000117e+01
5.100000000000000000e+01,2.887380399999999980e+01
5.200000000000000000e+01,2.911399700000000124e+01
5.300000000000000000e+01,2.936056299999999908e+01
5.400000000000000000e+01,2.961333799999999883e+01
5.500000000000000000e+01,2.987220800000000054e+01
5.600000000000000000e+01,3.013700299999999999e+01
5.700000000000000000e+01,3.040757599999999883e+01
5.800000000000000000e+01,3.068380200000000002e+01
5.900000000000000000e+01,3.096552300000000102e+01
6.000000000000000000e+01,3.125261700000000076e+01
6.100000000000000000e+01,3.154493700000000089e+01
6.200000000000000000e+01,3.184232300000000038e+01
6.300000000000000000e+01,3.214463400000000348e+01
6.400000000000000000e+01,3.245175900000000269e+01
6.500000000000000000e+01,3.276357699999999795e+01
6.600000000000000000e+01,3.307993299999999692e+01
6.700000000000000000e+01,3.340068800000000238e+01
6.800000000000000000e+01,3.372573899999999725e+01
6.900000000000000000e+01,3.405494300000000152e+01
7.000000000000000000e+01,3.438821000000000083e+01
7.100000000000000000e+01,3.472537599999999713e+01
7.200000000000000000e+01,3.506633399999999767e+01
7.300000000000000000e+01,3.541098000000000212e+01
7.400000000000000000e+01,3.575917799999999858e+01
7.500000000000000000e+01,3.611083599999999905e+01
7.600000000000000000e+01,3.646587799999999646e+01
7.700000000000000000e+01,3.682416200000000117e+01
7.800000000000000000e+01,3.718558099999999911e+01
7.900000000000000000e+01,3.755004900000000134e+01
8.000000000000000000e+01,3.791746499999999997e+01
8.100000000000000000e+01,3.828773100000000085e+01
8.200000000000000000e+01,3.866073999999999700e+01
8.300000000000000000e+01,3.903640399999999744e+01
8.400000000000000000e+01,3.941465000000000174e+01
8.500000000000000000e+01,3.979535299999999864e+01
8.600000000000000000e+01,4.017845899999999659e+01
8.700000000000000000e+01,4.056391099999999739e+01
8.800000000000000000e+01,4.095160700000000276e+01
8.900000000000000000e+01,4.134146899999999647e+01
9.000000000000000000e+01,4.173341400000000334e+01
9.100000000000000000e+01,4.212736900000000162e+01
9.200000000000000000e+01,4.252326200000000256e+01
9.300000000000000000e+01,4.292102100000000320e+01
9.400000000000000000e+01,4.332057600000000264e+01
9.500000000000000000e+01,4.372185499999999791e+01
9.600000000000000000e+01,4.412479799999999841e+01
9.700000000000000000e+01,4.452933500000000322e+01
9.800000000000000000e+01,4.493540600000000040e+01
9.900000000000000000e+01,4.534294899999999728e+01
1.000000000000000000e+02,4.575190700000000277e+01
1.010000000000000000e+02,4.616223099999999846e+01
1.020000000000000000e+02,4.657386799999999738e+01
1.030000000000000000e+02,4.698677800000000104e+01
1.040000000000000000e+02,4.740092800000000040e+01
1.050000000000000000e+02,4.781629600000000124e+01
1.060000000000000000e+02,4.823270399999999825e+01
1.070000000000000000e+02,4.865014299999999992e+01
1.080000000000000000e+02,4.906856499999999954e+01
1.090000000000000000e+02,4.948793400000000275e+01
1.100000000000000000e+02,4.990820300000000032e+01
1.110000000000000000e+02,5.032933400000000290e+01
1.120000000000000000e+02,5.075128600000000034e+01
1.130000000000000000e+02,5.117401499999999714e+01
1.140000000000000000e+02,5.159749200000000258e+01
1.150000000000000000e+02,5.202167500000000189e+01
1.160000000000000000e+02,5.244652599999999865e+01
1.170000000000000000e+02,5.287200500000000147e+01
1.180000000000000000e+02,5.329808799999999991e+01
1.190000000000000000e+02,5.372473500000000257e+01
1.200000000000000000e+02,5.415191699999999742e+01
1.210000000000000000e+02,5.457961999999999847e+01
1.220000000000000000e+02,5.500779299999999949e+01
1.230000000000000000e+02,5.543643200000000348e+01
1.240000000000000000e+02,5.586542099999999778e+01
1.250000000000000000e+02,5.629476499999999817e+01
1.260000000000000000e+02,5.672444500000000289e+01
1.270000000000000000e+02,5.715442999999999785e+01
1.280000000000000000e+02,5.758469800000000305e+01
1.290000000000000000e+02,5.801522400000000346e+01
1.300000000000000000e+02,5.844598799999999983e+01
1.310000000000000000e+02,5.887696799999999797e+01
1.320000000000000000e+02,5.930814000000000163e+01
1.330000000000000000e+02,5.973947900000000288e+01
1.340000000000000000e+02,6.017096699999999743e+01
1.350000000000000000e+02,6.060258900000000182e+01
1.360000000000000000e+02,6.103436299999999903e+01
1.370000000000000000e+02,6.146616000000000213e+01
1.380000000000000000e+02,6.189799099999999754e+01
1.390000000000000000e+02,6.232984900000000295e+01
1.400000000000000000e+02,6.276171500000000236e+01
1.410000000000000000e+02,6.319358100000000178e+01
1.420000000000000000e+02,6.362542299999999784e+01
1.430000000000000000e+02,6.405722799999999495e+01
1.440000000000000000e+02,6.448898300000000461e+01
1.450000000000000000e+02,6.492066199999999299e+01
1.460000000000000000e+02,6.535226400000000524e+01
1.470000000000000000e+02,6.578378299999999967e+01
1.480000000000000000e+02,6.621523299999999779e+01
1.490000000000000000e+02,6.664652300000000196e+01
1.500000000000000000e+02,6.707762900000000172e+01
1.510000000000000000e+02,6.750856000000000279e+01
1.520000000000000000e+02,6.793930100000000039e+01
1.530000000000000000e+02,6.836984999999999957e+01
1.540000000000000000e+02,6.880019400000000473e+01
1.550000000000000000e+02,6.923032399999999598e+01
1.560000000000000000e+02,6.966022499999999695e+01
1.570000000000000000e+02,7.008988999999999692e+01
1.580000000000000000e+02,7.051931799999999839e+01
1.590000000000000000e+02,7.094849399999999662e+01
1.600000000000000000e+02,7.137740300000000104e+01
1.610000000000000000e+02,7.180604599999999493e+01
1.620000000000000000e+02,7.223445100000000707e+01
1.630000000000000000e+02,7.266250599999999338e+01
1.640000000000000000e+02,7.309022500000000377e+01
1.650000000000000000e+02,7.351760099999999909e+01
1.660000000000000000e+02,7.394464899999999830e+01
1.670000000000000000e+02,7.437134600000000262e+01
1.680000000000000000e+02,7.479769899999999438e+01
1.690000000000000000e+02,7.522368600000000072e+01
1.700000000000000000e+02,7.564931500000000142e+01
1.710000000000000000e+02,7.607457700000000500e+01
1.720000000000000000e+02,7.649945800000000418e+01
1.730000000000000000e+02,7.692396499999999548e+01
1.740000000000000000e+02,7.734808300000000258e+01
1.750000000000000000e+02,7.777182000000000528e+01
1.760000000000000000e+02,7.819517500000000609e+01
1.770000000000000000e+02,7.861818700000000604e+01
1.780000000000000000e+02,7.904079400000000533e+01
1.790000000000000000e+02,7.946292900000000259e+01
1.800000000000000000e+02,7.988462800000000641e+01
1.810000000000000000e+02,8.030586999999999875e+01
1.820000000000000000e+02,8.072666200000000458e+01
1.830000000000000000e+02,8.114699600000000146e+01
1.840000000000000000e+02,8.156687900000000013e+01
1.850000000000000000e+02,8.198629800000000500e+01
1.860000000000000000e+02,8.240525100000000691e+01
1.870000000000000000e+02,8.282372999999999763e+01
1.880000000000000000e+02,8.324173700000000053e+01
1.890000000000000000e+02,8.365926399999999319e+01
1.900000000000000000e+02,8.407631700000000308e+01
1.910000000000000000e+02,8.449287400000000048e+01
1.920000000000000000e+02,8.490894299999999362e+01
1.930000000000000000e+02,8.532451600000000269e+01
1.940000000000000000e+02,8.573959399999999675e+01
1.950000000000000000e+02,8.615416700000000105e+01
1.960000000000000000e+02,8.656823699999999633e+01
1.970000000000000000e+02,8.698179600000000278e+01
1.980000000000000000e+02,8.739485200000000020e+01
1.990000000000000000e+02,8.780738800000000310e+01
2.000000000000000000e+02,8.821945999999999799e+01
2.010000000000000000e+02,8.863097399999999482e+01
2.020000000000000000e+02,8.904197700000000282e+01
2.030000000000000000e+02,8.945246899999999357e+01
2.040000000000000000e+02,8.986241099999999449e+01
2.050000000000000000e+02,9.027182000000000528e+01
2.060000000000000000e+02,9.068071000000000481e+01
2.070000000000000000e+02,9.108905799999999431e+01
2.080000000000000000e+02,9.149686400000000219e+01
2.090000000000000000e+02,9.190412100000000351e+01
2.100000000000000000e+02,9.231082899999999825e+01
2.110000000000000000e+02,9.271699499999999716e+01
2.120000000000000000e+02,9.312261200000000372e+01
2.130000000000000000e+02,9.352767900000000623e+01
2.140000000000000000e+02,9.393219799999999964e+01
2.150000000000000000e+02,9.433615899999999499e+01
2.160000000000000000e+02,9.473957099999999798e+01
2.170000000000000000e+02,9.514241800000000637e+01
2.180000000000000000e+02,9.554470799999999997e+01
2.190000000000000000e+02,9.594644200000000467e+01
2.200000000000000000e+02,9.634760300000000655e+01
2.210000000000000000e+02,9.674820699999999363e+01
2.220000000000000000e+02,9.714824699999999780e+01
2.230000000000000000e+02,9.754771399999999915e+01
2.240000000000000000e+02,9.794662499999999739e+01
2.250000000000000000e+02,9.834496300000000701e+01
2.260000000000000000e+02,9.874272899999999709e+01
2.270000000000000000e+02,9.913993100000000425e+01
2.280000000000000000e+02,9.953655200000000036e+01
2.290000000000000000e+02,9.993258699999999806e+01
2.300000000000000000e+02,1.003280400000000014e+02
2.310000000000000000e+02,1.007229200000000020e+02
2.320000000000000000e+02,1.011172300000000064e+02
2.330000000000000000e+02,1.015109700000000004e+02
2.340000000000000000e+02,1.019041299999999950e+02
2.350000000000000000e+02,1.022967100000000045e+02
2.360000000000000000e+02,1.026887200000000036e+02
2.370000000000000000e+02,1.030801500000000033e+02
2.380000000000000000e+02,1.034709799999999973e+02
2.390000000000000000e+02,1.038612099999999998e+02
2.400000000000000000e+02,1.042508799999999951e+02
2.410000000000000000e+02,1.046399600000000021e+02
2.420000000000000000e+02,1.050284699999999987e+02
2.430000000000000000e+02,1.054163499999999942e+02
2.440000000000000000e+02,1.058036699999999968e+02
2.450000000000000000e+02,1.061904100000000000e+02
2.460000000000000000e+02,1.065765600000000006e+02
2.470000000000000000e+02,1.069621400000000051e+02
2.480000000000000000e+02,1.073471399999999960e+02
2.490000000000000000e+02,1.077315399999999954e+02
2.500000000000000000e+02,1.081153500000000065e+02
2.510000000000000000e+02,1.084985700000000008e+02
2.520000000000000000e+02,1.088812099999999958e+02
2.530000000000000000e+02,1.092632700000000057e+02
2.540000000000000000e+02,1.096447299999999956e+02
2.550000000000000000e+02,1.100255999999999972e+02
2.560000000000000000e+02,1.104058699999999931e+02
2.570000000000000000e+02,1.107855500000000006e+02
2.580000000000000000e+02,1.111646300000000025e+02
2.590000000000000000e+02,1.115431399999999940e+02
2.600000000000000000e+02,1.119210599999999971e+02
2.610000000000000000e+02,1.122983799999999945e+02
2.620000000000000000e+02,1.126750899999999973e+02
2.630000000000000000e+02,1.130512400000000071e+02
2.640000000000000000e+02,1.134267899999999969e+02
2.650000000000000000e+02,1.138017099999999999e+02
2.660000000000000000e+02,1.141760600000000068e+02
2.670000000000000000e+02,1.145498099999999937e+02
2.680000000000000000e+02,1.149230000000000018e+02
2.690000000000000000e+02,1.152955900000000042e+02
2.700000000000000000e+02,1.156675900000000041e+02
2.710000000000000000e+02,1.160390000000000015e+02
2.720000000000000000e+02,1.164098099999999931e+02
2.730000000000000000e+02,1.167800399999999996e+02
2.740000000000000000e+02,1.171496700000000004e+02
2.750000000000000000e+02,1.175187099999999987e+02
2.760000000000000000e+02,1.178871500000000054e+02
2.770000000000000000e+02,1.182549999999999955e+02
2.780000000000000000e+02,1.186222499999999940e+02
2.790000000000000000e+02,1.189889199999999931e+02
2.800000000000000000e+02,1.193550000000000040e+02
2.810000000000000000e+02,1.197205000000000013e+02
2.820000000000000000e+02,1.200854099999999960e+02
2.830000000000000000e+02,1.204497199999999992e+02
2.840000000000000000e+02,1.208134500000000031e+02
2.850000000000000000e+02,1.211765900000000045e+02
2.860000000000000000e+02,1.215391400000000033e+02
2.870000000000000000e+02,1.219010799999999932e+02
2.880000000000000000e+02,1.222624500000000012e+02
2.890000000000000000e+02,1.226232399999999956e+02
2.900000000000000000e+02,1.229834100000000063e+02
2.910000000000000000e+02,1.233429900000000004e+02
2.920000000000000000e+02,1.237019999999999982e+02
2.930000000000000000e+02,1.240604299999999967e+02
2.940000000000000000e+02,1.244182700000000068e+02
2.950000000000000000e+02,1.247755300000000034e+02
2.960000000000000000e+02,1.251321899999999943e+02
2.970000000000000000e+02,1.254882499999999936e+02
2.980000000000000000e+02,1.258437399999999968e+02
2.990000000000000000e+02,1.261986200000000053e+02
3.000000000000000000e+02,1.265529099999999971e+02
3.010000000000000000e+02,1.269066499999999991e+02
3.020000000000000000e+02,1.272597999999999985e+02
3.030000000000000000e+02,1.276123599999999954e+02
3.040000000000000000e+02,1.279643300000000039e+02
3.050000000000000000e+02,1.283156999999999925e+02
3.060000000000000000e+02,1.286665199999999913e+02
3.070000000000000000e+02,1.290167199999999923e+02
3.080000000000000000e+02,1.293663599999999860e+02
3.090000000000000000e+02,1.297154099999999914e+02
3.100000000000000000e+02,1.300638899999999865e+02
3.110000000000000000e+02,1.304117899999999963e+02
3.120000000000000000e+02,1.307590899999999863e+02
3.130000000000000000e+02,1.311058199999999943e+02
3.140000000000000000e+02,1.314519799999999918e+02
3.150000000000000000e+02,1.317975299999999947e+02
3.160000000000000000e+02,1.321425000000000125e+02
3.170000000000000000e+02,1.324869099999999946e+02
3.180000000000000000e+02,1.328307499999999948e+02
3.190000000000000000e+02,1.331740000000000066e+02
3.200000000000000000e+02,1.335166600000000017e+02
3.210000000000000000e+02,1.338587599999999895e+02
3.220000000000000000e+02,1.342002699999999891e+02
3.230000000000000000e+02,1.345412000000000035e+02
3.240000000000000000e+02,1.348815500000000043e+02
3.250000000000000000e+02,1.352213299999999947e+02
3.260000000000000000e+02,1.355605500000000063e+02
3.270000000000000000e+02,1.358991900000000044e+02
3.280000000000000000e+02,1.362372400000000141e+02
3.290000000000000000e+02,1.365747100000000103e+02
3.300000000000000000e+02,1.369116099999999960e+02
3.310000000000000000e+02,1.372479399999999998e+02
3.320000000000000000e+02,1.375837099999999964e+02
3.330000000000000000e+02,1.379189000000000078e+02
3.340000000000000000e+02,1.382535399999999868e+02
3.350000000000000000e+02,1.385875699999999995e+02
3.360000000000000000e+02,1.389210199999999986e+02
3.370000000000000000e+02,1.392539400000000001e+02
3.380000000000000000e+02,1.395862700000000132e+02
3.390000000000000000e+02,1.399180499999999938e+02
3.400000000000000000e+02,1.402492499999999893e+02
3.410000000000000000e+02,1.405798499999999933e+02
3.420000000000000000e+02,1.409098999999999933e+02
3.430000000000000000e+02,1.412393999999999892e+02
3.440000000000000000e+02,1.415683099999999968e+02
3.450000000000000000e+02,1.418966700000000003e+02
3.460000000000000000e+02,1.422244599999999934e+02
3.470000000000000000e+02,1.425516499999999951e+02
3.480000000000000000e+02,1.428782999999999959e+02
3.490000000000000000e+02,1.432044099999999958e+02
3.500000000000000000e+02,1.435299400000000105e+02
3.510000000000000000e+02,1.438549199999999928e+02
3.520000000000000000e+02,1.441793099999999868e+02
3.530000000000000000e+02,1.445031299999999987e+02
3.540000000000000000e+02,1.448264000000000067e+02
3.550000000000000000e+02,1.451491200000000106e+02
3.560000000000000000e+02,1.454712800000000072e+02
3.570000000000000000e+02,1.457928499999999872e+02
3.580000000000000000e+02,1.461138799999999947e+02
3.590000000000000000e+02,1.464343599999999981e+02
3.600000000000000000e+02,1.467542899999999975e+02
3.610000000000000000e+02,1.470736400000000117e+02
3.620000000000000000e+02,1.473924100000000124e+02
3.630000000000000000e+02,1.477106499999999869e+02
3.640000000000000000e+02,1.480283399999999858e+02
3.650000000000000000e+02,1.483454600000000028e+02
3.660000000000000000e+02,1.486620299999999872e+02
3.670000000000000000e+02,1.489780299999999897e+02
3.680000000000000000e+02,1.492934899999999914e+02
3.690000000000000000e+02,1.496083999999999889e+02
3.700000000000000000e+02,1.499227400000000046e+02
3.710000000000000000e+02,1.502365599999999972e+02
3.720000000000000000e+02,1.505497900000000016e+02
3.730000000000000000e+02,1.508624700000000018e+02
3.740000000000000000e+02,1.511746200000000044e+02
3.750000000000000000e+02,1.514862099999999998e+02
3.760000000000000000e+02,1.517972300000000132e+02
3.770000000000000000e+02,1.521077099999999973e+02
3.780000000000000000e+02,1.524176600000000121e+02
3.790000000000000000e+02,1.527270499999999913e+02
3.800000000000000000e+02,1.530358999999999980e+02
3.810000000000000000e+02,1.533441799999999944e+02
3.820000000000000000e+02,1.536519199999999898e+02
3.830000000000000000e+02,1.539591200000000129e+02
3.840000000000000000e+02,1.542657800000000066e+02
3.850000000000000000e+02,1.545718699999999899e+02
3.860000000000000000e+02,1.548774300000000039e+02
3.870000000000000000e+02,1.551824599999999919e+02
3.880000000000000000e+02,1.554869199999999978e+02
3.890000000000000000e+02,1.557908500000000060e+02
3.900000000000000000e+02,1.560942400000000134e+02
3.910000000000000000e+02,1.563970899999999915e+02
3.920000000000000000e+02,1.566993899999999940e+02
3.930000000000000000e+02,1.570011399999999924e+02
3.940000000000000000e+02,1.573023799999999994e+02
3.950000000000000000e+02,1.576030599999999993e+02
3.960000000000000000e+02,1.579031999999999982e+02
3.970000000000000000e+02,1.582027999999999963e+02
3.980000000000000000e+02,1.585018799999999999e+02
3.990000000000000000e+02,1.588003999999999962e+02
4.000000000000000000e+02,1.590983999999999980e+02
4.010000000000000000e+02,1.593958399999999926e+02
4.020000000000000000e+02,1.596927599999999927e+02
4.030000000000000000e+02,1.599891700000000014e+02
4.040000000000000000e+02,1.602850200000000029e+02
4.050000000000000000e+02,1.605803400000000067e+02
4.060000000000000000e+02,1.608750900000000001e+02
4.070000000000000000e+02,1.611693400000000054e+02
4.080000000000000000e+02,1.614630699999999877e+02
4.090000000000000000e+02,1.617562599999999975e+02
4.100000000000000000e+02,1.620489000000000033e+02
4.110000000000000000e+02,1.623410299999999893e+02
4.120000000000000000e+02,1.626326400000000092e+02
4.130000000000000000e+02,1.629237099999999998e+02
4.140000000000000000e+02,1.632142299999999864e+02
4.150000000000000000e+02,1.635042400000000100e+02
4.160000000000000000e+02,1.637937200000000075e+02
4.170000000000000000e+02,1.640826600000000042e+02
4.180000000000000000e+02,1.643710800000000063e+02
4.190000000000000000e+02,1.646589999999999918e+02
4.200000000000000000e+02,1.649463800000000049e+02
4.210000000000000000e+02,1.652332199999999887e+02
4.220000000000000000e+02,1.655195500000000095e+02
4.230000000000000000e+02,1.658053400000000011e+02
4.240000000000000000e+02,1.660906400000000076e+02
4.250000000000000000e+02,1.663753800000000069e+02
4.260000000000000000e+02,1.666596399999999960e+02
4.270000000000000000e+02,1.669433600000000126e+02
4.280000000000000000e+02,1.672265500000000031e+02
4.290000000000000000e+02,1.675092300000000023e+02
4.300000000000000000e+02,1.677913800000000037e+02
4.310000000000000000e+02,1.680730100000000107e+02
4.320000000000000000e+02,1.683541299999999978e+02
4.330000000000000000e+02,1.686347499999999968e+02
4.340000000000000000e+02,1.689148299999999949e+02
4.350000000000000000e+02,1.691943799999999953e+02
4.360000000000000000e+02,1.694734500000000139e+02
4.370000000000000000e+02,1.697520000000000095e+02
4.380000000000000000e+02,1.700300100000000043e+02
4.390000000000000000e+02,1.703075300000000141e+02
4.400000000000000000e+02,1.705845199999999977e+02
4.410000000000000000e+02,1.708610099999999932e+02
4.420000000000000000e+02,1.711369799999999941e+02
4.430000000000000000e+02,1.714124500000000069e+02
4.440000000000000000e+02,1.716873899999999935e+02
4.450000000000000000e+02,1.719618399999999951e+02
4.460000000000000000e+02,1.722357800000000054e+02
4.470000000000000000e+02,1.725091999999999928e+02
4.480000000000000000e+02,1.727821000000000140e+02
4.490000000000000000e+02,1.730545199999999966e+02
4.500000000000000000e+02,1.733264200000000130e+02
4.510000000000000000e+02,1.735977900000000034e+02
4.520000000000000000e+02,1.738686999999999898e+02
4.530000000000000000e+02,1.741390800000000070e+02
4.540000000000000000e+02,1.744089500000000044e+02
4.550000000000000000e+02,1.746783299999999883e+02
4.560000000000000000e+02,1.749471900000000062e+02
4.570000000000000000e+02,1.752155500000000075e+02
4.580000000000000000e+02,1.754834099999999921e+02
4.590000000000000000e+02,1.757507799999999918e+02
4.600000000000000000e+02,1.760176199999999938e+02
4.610000000000000000e+02,1.762839999999999918e+02
4.620000000000000000e+02,1.765498499999999922e+02
4.630000000000000000e+02,1.768152200000000107e+02
4.640000000000000000e+02,1.770800800000000095e+02
4.650000000000000000e+02,1.773444399999999916e+02
4.660000000000000000e+02,1.776082900000000109e+02
4.670000000000000000e+02,1.778716900000000010e+02
4.680000000000000000e+02,1.781345499999999902e+02
4.690000000000000000e+02,1.783969299999999976e+02
4.700000000000000000e+02,1.786588299999999947e+02
4.710000000000000000e+02,1.789202099999999973e+02
4.720000000000000000e+02,1.791811099999999897e+02
4.730000000000000000e+02,1.794415300000000002e+02
4.740000000000000000e+02,1.797014200000000130e+02
4.750000000000000000e+02,1.799608299999999872e+02
4.760000000000000000e+02,1.802197600000000079e+02
4.770000000000000000e+02,1.804781999999999869e+02
4.780000000000000000e+02,1.807361500000000092e+02
4.790000000000000000e+02,1.809935900000000117e+02
4.800000000000000000e+02,1.812505600000000072e+02
4.810000000000000000e+02,1.815070599999999956e+02
4.820000000000000000e+02,1.817630599999999959e+02
4.830000000000000000e+02,1.820185700000000111e+02
4.840000000000000000e+02,1.822735900000000129e+02
4.850000000000000000e+02,1.825281200000000013e+02
4.860000000000000000e+02,1.827821500000000015e+02
4.870000000000000000e+02,1.830357400000000041e+02
4.880000000000000000e+02,1.832888199999999870e+02
4.890000000000000000e+02,1.835414100000000133e+02
4.900000000000000000e+02,1.837935300000000041e+02
4.910000000000000000e+02,1.840451500000000067e+02
4.920000000000000000e+02,1.842963300000000118e+02
4.930000000000000000e+02,1.845469999999999970e+02
4.940000000000000000e+02,1.847971799999999973e+02
4.950000000000000000e+02,1.850469099999999969e+02
4.960000000000000000e+02,1.852961300000000051e+02
4.970000000000000000e+02,1.855448800000000062e+02
4.980000000000000000e+02,1.857931700000000035e+02
4.990000000000000000e+02,1.860409500000000094e+02
5.000000000000000000e+02,1.862882799999999861e+02
5.010000000000000000e+02,1.865351300000000094e+02
5.020000000000000000e+02,1.867814899999999909e+02
5.030000000000000000e+02,1.870274200000000064e+02
5.040000000000000000e+02,1.872728299999999990e+02
5.050000000000000000e+02,1.875177799999999877e+02
5.060000000000000000e+02,1.877622399999999914e+02
5.070000000000000000e+02,1.880062399999999911e+02
5.080000000000000000e+02,1.882497899999999902e+02
5.090000000000000000e+02,1.884928400000000011e+02
5.100000000000000000e+02,1.887354400000000112e+02
5.110000000000000000e+02,1.889775500000000079e+02
5.120000000000000000e+02,1.892192100000000039e+02
5.130000000000000000e+02,1.894603999999999928e+02
5.140000000000000000e+02,1.897011300000000062e+02
5.150000000000000000e+02,1.899413800000000094e+02
5.160000000000000000e+02,1.901811500000000024e+02
5.170000000000000000e+02,1.904204599999999914e+02
5.180000000000000000e+02,1.906593300000000113e+02
5.190000000000000000e+02,1.908977199999999925e+02
5.200000000000000000e+02,1.911356399999999951e+02
5.210000000000000000e+02,1.913730899999999906e+02
5.220000000000000000e+02,1.916100900000000138e+02
5.230000000000000000e+02,1.918466500000000110e+02
5.240000000000000000e+02,1.920827199999999948e+02
5.250000000000000000e+02,1.923183300000000031e+02
5.260000000000000000e+02,1.925534700000000043e+02
5.270000000000000000e+02,1.927881600000000049e+02
5.280000000000000000e+02,1.930224000000000046e+02
5.290000000000000000e+02,1.932562000000000069e+02
5.300000000000000000e+02,1.934895199999999988e+02
5.310000000000000000e+02,1.937223700000000122e+02
5.320000000000000000e+02,1.939547699999999963e+02
5.330000000000000000e+02,1.941867100000000050e+02
5.340000000000000000e+02,1.944182000000000130e+02
5.350000000000000000e+02,1.946492599999999982e+02
5.360000000000000000e+02,1.948798500000000047e+02
5.370000000000000000e+02,1.951099700000000041e+02
5.380000000000000000e+02,1.953396500000000060e+02
5.390000000000000000e+02,1.955688499999999976e+02
5.400000000000000000e+02,1.957976099999999917e+02
5.410000000000000000e+02,1.960259200000000135e+02
5.420000000000000000e+02,1.962538299999999936e+02
5.430000000000000000e+02,1.964812499999999886e+02
5.440000000000000000e+02,1.967082200000000114e+02
5.450000000000000000e+02,1.969347400000000050e+02
5.460000000000000000e+02,1.971608099999999979e+02
5.470000000000000000e+02,1.973864299999999901e+02
5.480000000000000000e+02,1.976116000000000099e+02
5.490000000000000000e+02,1.978363500000000101e+02
5.500000000000000000e+02,1.980606400000000065e+02
5.510000000000000000e+02,1.982844800000000021e+02
5.520000000000000000e+02,1.985078900000000033e+02
5.530000000000000000e+02,1.987308500000000038e+02
5.540000000000000000e+02,1.989533500000000004e+02
5.550000000000000000e+02,1.991754200000000026e+02
5.560000000000000000e+02,1.993970300000000009e+02
5.570000000000000000e+02,1.996182300000000112e+02
5.580000000000000000e+02,1.998389899999999955e+02
5.590000000000000000e+02,2.000593000000000075e+02
5.600000000000000000e+02,2.002791599999999903e+02
5.610000000000000000e+02,2.004986000000000104e+02
5.620000000000000000e+02,2.007175799999999981e+02
5.630000000000000000e+02,2.009361299999999915e+02
5.640000000000000000e+02,2.011542399999999873e+02
5.650000000000000000e+02,2.013719199999999887e+02
5.660000000000000000e+02,2.015891599999999926e+02
5.670000000000000000e+02,2.018059499999999957e+02
5.680000000000000000e+02,2.020223400000000140e+02
5.690000000000000000e+02,2.022382800000000032e+02
5.700000000000000000e+02,2.024538000000000011e+02
5.710000000000000000e+02,2.026688699999999983e+02
5.720000000000000000e+02,2.028834999999999980e+02
5.730000000000000000e+02,2.030977200000000096e+02
5.740000000000000000e+02,2.033114899999999921e+02
5.750000000000000000e+02,2.035248400000000117e+02
5.760000000000000000e+02,2.037377600000000086e+02
5.770000000000000000e+02,2.039502400000000080e+02
5.780000000000000000e+02,2.041623099999999909e+02
5.790000000000000000e+02,2.043739300000000014e+02
5.800000000000000000e+02,2.045851399999999956e+02
5.810000000000000000e+02,2.047959099999999921e+02
5.820000000000000000e+02,2.050062700000000007e+02
5.830000000000000000e+02,2.052161999999999864e+02
5.840000000000000000e+02,2.054257000000000062e+02
5.850000000000000000e+02,2.056347800000000063e+02
5.860000000000000000e+02,2.058434300000000121e+02
5.870000000000000000e+02,2.060516700000000014e+02
5.880000000000000000e+02,2.062594899999999996e+02
5.890000000000000000e+02,2.064668700000000001e+02
5.900000000000000000e+02,2.066738400000000127e+02
5.910000000000000000e+02,2.068804000000000087e+02
5.920000000000000000e+02,2.070865200000000073e+02
5.930000000000000000e+02,2.072922399999999925e+02
5.940000000000000000e+02,2.074975300000000118e+02
5.950000000000000000e+02,2.077023900000000083e+02
5.960000000000000000e+02,2.079068499999999915e+02
5.970000000000000000e+02,2.081108900000000119e+02
5.980000000000000000e+02,2.083145000000000095e+02
5.990000000000000000e+02,2.085176999999999907e+02