# Time [s], Thickness [m]
1.000000000000000000e+00,8.000000400000000303e-03
2.000000000000000000e+00,8.000000400000000303e-03
3.000000000000000000e+00,8.000000400000000303e-03
4.000000000000000000e+00,8.000000400000000303e-03
5.000000000000000000e+00,8.000000400000000303e-03
6.000000000000000000e+00,8.000000400000000303e-03
7.000000000000000000e+00,8.000000400000000303e-03
8.000000000000000000e+00,8.000000400000000303e-03
9.000000000000000000e+00,8.000000400000000303e-03
1.000000000000000000e+01,8.000000400000000303e-03
1.100000000000000000e+01,8.000000400000000303e-03
1.200000000000000000e+01,7.999999400000000829e-03
1.300000000000000000e+01,7.999999400000000829e-03
1.400000000000000000e+01,7.999999400000000829e-03
1.500000000000000000e+01,7.999998499999999221e-03
1.600000000000000000e+01,7.999996699999999475e-03
1.700000000000000000e+01,7.999992900000000781e-03
1.800000000000000000e+01,7.999986400000000733e-03
1.900000000000000000e+01,7.999975200000000383e-03
2.000000000000000000e+01,7.999956600000000112e-03
2.100000000000000000e+01,7.999925899999999618e-03
2.200000000000000000e+01,7.999878400000000334e-03
2.300000000000000000e+01,7.999805699999999395e-03
2.400000000000000000e+01,7.999697700000000730e-03
2.500000000000000000e+01,7.999543099999999185e-03
2.600000000000000000e+01,7.999327000000000520e-03
2.700000000000000000e+01,7.999028999999999515e-03
2.800000000000000000e+01,7.998628500000000419e-03
2.900000000000000000e+01,7.998100500000000779e-03
3.000000000000000000e+01,7.997418799999999467e-03
3.100000000000000000e+01,7.996553599999999332e-03
3.200000000000000000e+01,7.995475999999999625e-03
3.300000000000000000e+01,7.994160999999999628e-03
3.400000000000000000e+01,7.992583299999999821e-03
3.500000000000000000e+01,7.990723499999999660e-03
3.600000000000000000e+01,7.988452899999999926e-03
3.700000000000000000e+01,7.986019400000000587e-03
3.800000000000000000e+01,7.983277599999999766e-03
3.900000000000000000e+01,7.980246099999999468e-03
4.000000000000000000e+01,7.976926900000000376e-03
4.100000000000000000e+01,7.973335700000000470e-03
4.200000000000000000e+01,7.969492099999999496e-03
4.300000000000000000e+01,7.965418499999999888e-03
4.400000000000000000e+01,7.961139100000000357e-03
4.500000000000000000e+01,7.956679899999999361e-03
4.600000000000000000e+01,7.952066100000000290e-03
4.700000000000000000e+01,7.947322899999999593e-03
4.800000000000000000e+01,7.942475399999999325e-03
4.900000000000000000e+01,7.937545900000000584e-03
5.000000000000000000e+01,7.932555900000000729e-03
5.100000000000000000e+01,7.927525799999999775e-03
5.200000000000000000e+01,7.922472399999999984e-03
5.300000000000000000e+01,7.917409800000000525e-03
5.400000000000000000e+01,7.912352699999999905e-03
5.500000000000000000e+01,7.907307699999999509e-03
5.600000000000000000e+01,7.902282300000000592e-03
5.700000000000000000e+01,7.897279199999999305e-03
5.800000000000000000e+01,7.892299400000000326e-03
5.900000000000000000e+01,7.887339199999999356e-03
6.000000000000000000e+01,7.882393899999999565e-03
6.100000000000000000e+01,7.877455999999999695e-03
6.200000000000000000e+01,7.872519099999999298e-03
6.300000000000000000e+01,7.867575599999999253e-03
6.400000000000000000e+01,7.862619100000000846e-03
6.500000000000000000e+01,7.857644900000000307e-03
6.600000000000000000e+01,7.852650200000000150e-03
6.700000000000000000e+01,7.847635999999999848e-03
6.800000000000000000e+01,7.842603099999999675e-03
6.900000000000000000e+01,7.837555399999999659e-03
7.000000000000000000e+01,7.832499200000000647e-03
7.100000000000000000e+01,7.827440300000000281e-03
7.200000000000000000e+01,7.822384099999999535e-03
7.300000000000000000e+01,7.817335400000000045e-03
7.400000000000000000e+01,7.812301599999999999e-03
7.500000000000000000e+01,7.807283199999999999e-03
7.600000000000000000e+01,7.802283900000000008e-03
7.700000000000000000e+01,7.797303600000000424e-03
7.800000000000000000e+01,7.792341099999999972e-03
7.900000000000000000e+01,7.787394300000000102e-03
8.000000000000000000e+01,7.782459299999999920e-03
8.100000000000000000e+01,7.777532600000000400e-03
8.200000000000000000e+01,7.772610099999999710e-03
8.300000000000000000e+01,7.767686600000000413e-03
8.400000000000000000e+01,7.762759900000000025e-03
8.500000000000000000e+01,7.757826699999999590e-03
8.600000000000000000e+01,7.752885999999999632e-03
8.700000000000000000e+01,7.747936500000000143e-03
8.800000000000000000e+01,7.742978600000000391e-03
8.900000000000000000e+01,7.738014199999999725e-03
9.000000000000000000e+01,7.733045099999999623e-03
9.100000000000000000e+01,7.728073299999999902e-03
9.200000000000000000e+01,7.723101399999999714e-03
9.300000000000000000e+01,7.718131900000000344e-03
9.400000000000000000e+01,7.713165600000000330e-03
9.500000000000000000e+01,7.708204899999999624e-03
9.600000000000000000e+01,7.703249799999999960e-03
9.700000000000000000e+01,7.698299799999999866e-03
9.800000000000000000e+01,7.693354000000000338e-03
9.900000000000000000e+01,7.688411499999999767e-03
1.000000000000000000e+02,7.683469400000000199e-03
1.010000000000000000e+02,7.678526500000000359e-03
1.020000000000000000e+02,7.673579699999999622e-03
1.030000000000000000e+02,7.668626999999999909e-03
1.040000000000000000e+02,7.663666300000000070e-03
1.050000000000000000e+02,7.658695800000000359e-03
1.060000000000000000e+02,7.653714600000000035e-03
1.070000000000000000e+02,7.648721800000000091e-03
1.080000000000000000e+02,7.643717799999999798e-03
1.090000000000000000e+02,7.638702199999999887e-03
1.100000000000000000e+02,7.633675399999999625e-03
1.110000000000000000e+02,7.628638800000000358e-03
1.120000000000000000e+02,7.623592400000000352e-03
1.130000000000000000e+02,7.618538099999999820e-03
1.140000000000000000e+02,7.613474999999999757e-03
1.150000000000000000e+02,7.608404800000000308e-03
1.160000000000000000e+02,7.603326300000000197e-03
1.170000000000000000e+02,7.598240400000000165e-03
1.180000000000000000e+02,7.593145600000000134e-03
1.190000000000000000e+02,7.588041000000000230e-03
1.200000000000000000e+02,7.582925299999999577e-03
1.210000000000000000e+02,7.577797899999999705e-03
1.220000000000000000e+02,7.572656999999999999e-03
1.230000000000000000e+02,7.567501199999999983e-03
1.240000000000000000e+02,7.561769799999999708e-03
1.250000000000000000e+02,7.556138599999999775e-03
1.260000000000000000e+02,7.550539900000000082e-03
1.270000000000000000e+02,7.544999000000000150e-03
1.280000000000000000e+02,7.539498199999999581e-03
1.290000000000000000e+02,7.534022900000000335e-03
1.300000000000000000e+02,7.528564899999999616e-03
1.310000000000000000e+02,7.523115300000000026e-03
1.320000000000000000e+02,7.517668899999999793e-03
1.330000000000000000e+02,7.512220600000000213e-03
1.340000000000000000e+02,7.506766399999999922e-03
1.350000000000000000e+02,7.501303200000000032e-03
1.360000000000000000e+02,7.495827499999999782e-03
1.370000000000000000e+02,7.490337399999999826e-03
1.380000000000000000e+02,7.484829099999999735e-03
1.390000000000000000e+02,7.479301199999999900e-03
1.400000000000000000e+02,7.473751399999999968e-03
1.410000000000000000e+02,7.468177000000000322e-03
1.420000000000000000e+02,7.462576999999999752e-03
1.430000000000000000e+02,7.456949899999999916e-03
1.440000000000000000e+02,7.451293999999999799e-03
1.450000000000000000e+02,7.445609199999999803e-03
1.460000000000000000e+02,7.439893700000000179e-03
1.470000000000000000e+02,7.434148300000000334e-03
1.480000000000000000e+02,7.428371799999999858e-03
1.490000000000000000e+02,7.422564599999999756e-03
1.500000000000000000e+02,7.416726099999999822e-03
1.510000000000000000e+02,7.410856000000000388e-03
1.520000000000000000e+02,7.404954600000000255e-03
1.530000000000000000e+02,7.399021199999999618e-03
1.540000000000000000e+02,7.393055100000000407e-03
1.550000000000000000e+02,7.387055499999999747e-03
1.560000000000000000e+02,7.381022000000000104e-03
1.570000000000000000e+02,7.374953499999999801e-03
1.580000000000000000e+02,7.368849599999999569e-03
1.590000000000000000e+02,7.362708400000000063e-03
1.600000000000000000e+02,7.356529100000000140e-03
1.610000000000000000e+02,7.350310700000000329e-03
1.620000000000000000e+02,7.344052700000000024e-03
1.630000000000000000e+02,7.337753199999999879e-03
1.640000000000000000e+02,7.331411799999999757e-03
1.650000000000000000e+02,7.325027599999999785e-03
1.660000000000000000e+02,7.318599099999999885e-03
1.670000000000000000e+02,7.312126000000000389e-03
1.680000000000000000e+02,7.305607700000000225e-03
1.690000000000000000e+02,7.299042799999999782e-03
1.700000000000000000e+02,7.292430400000000056e-03
1.710000000000000000e+02,7.285769600000000304e-03
1.720000000000000000e+02,7.279059400000000186e-03
1.730000000000000000e+02,7.272298899999999830e-03
1.740000000000000000e+02,7.265487200000000229e-03
1.750000000000000000e+02,7.258622400000000301e-03
1.760000000000000000e+02,7.251703600000000173e-03
1.770000000000000000e+02,7.244730399999999709e-03
1.780000000000000000e+02,7.237701200000000099e-03
1.790000000000000000e+02,7.230614800000000064e-03
1.800000000000000000e+02,7.223470600000000269e-03
1.810000000000000000e+02,7.216267299999999836e-03
1.820000000000000000e+02,7.209003900000000159e-03
1.830000000000000000e+02,7.201680000000000234e-03
1.840000000000000000e+02,7.194295100000000324e-03
1.850000000000000000e+02,7.186848200000000089e-03
1.860000000000000000e+02,7.179338999999999860e-03
1.870000000000000000e+02,7.171766799999999831e-03
1.880000000000000000e+02,7.164131399999999934e-03
1.890000000000000000e+02,7.156433099999999839e-03
1.900000000000000000e+02,7.148670999999999671e-03
1.910000000000000000e+02,7.140409200000000407e-03
1.920000000000000000e+02,7.132206599999999647e-03
1.930000000000000000e+02,7.124018900000000064e-03
1.940000000000000000e+02,7.115824599999999965e-03
1.950000000000000000e+02,7.107610299999999985e-03
1.960000000000000000e+02,7.099367700000000329e-03
1.970000000000000000e+02,7.091089600000000277e-03
1.980000000000000000e+02,7.082772400000000336e-03
1.990000000000000000e+02,7.074413800000000155e-03
2.000000000000000000e+02,7.066011900000000387e-03
2.010000000000000000e+02,7.057565299999999688e-03
2.020000000000000000e+02,7.049074399999999928e-03
2.030000000000000000e+02,7.040539799999999578e-03
2.040000000000000000e+02,7.031962299999999777e-03
2.050000000000000000e+02,7.023342900000000000e-03
2.060000000000000000e+02,7.014683899999999729e-03
2.070000000000000000e+02,7.005986799999999910e-03
2.080000000000000000e+02,6.997254199999999695e-03
2.090000000000000000e+02,6.988488600000000370e-03
2.100000000000000000e+02,6.979691799999999946e-03
2.110000000000000000e+02,6.970867500000000119e-03
2.120000000000000000e+02,6.962018599999999710e-03
2.130000000000000000e+02,6.953147699999999605e-03
2.140000000000000000e+02,6.944257799999999960e-03
2.150000000000000000e+02,6.935352500000000267e-03
2.160000000000000000e+02,6.926434599999999747e-03
2.170000000000000000e+02,6.917507399999999959e-03
2.180000000000000000e+02,6.908573700000000123e-03
2.190000000000000000e+02,6.899636199999999858e-03
2.200000000000000000e+02,6.890698800000000061e-03
2.210000000000000000e+02,6.881764200000000352e-03
2.220000000000000000e+02,6.872834599999999745e-03
2.230000000000000000e+02,6.863913000000000132e-03
2.240000000000000000e+02,6.855002100000000265e-03
2.250000000000000000e+02,6.846104700000000230e-03
2.260000000000000000e+02,6.837222700000000243e-03
2.270000000000000000e+02,6.828358399999999787e-03
2.280000000000000000e+02,6.819514599999999815e-03
2.290000000000000000e+02,6.810693100000000076e-03
2.300000000000000000e+02,6.801895300000000179e-03
2.310000000000000000e+02,6.793124099999999811e-03
2.320000000000000000e+02,6.784380399999999714e-03
2.330000000000000000e+02,6.775666500000000238e-03
2.340000000000000000e+02,6.766983800000000125e-03
2.350000000000000000e+02,6.758333600000000253e-03
2.360000000000000000e+02,6.749717500000000300e-03
2.370000000000000000e+02,6.741136800000000276e-03
2.380000000000000000e+02,6.732592800000000190e-03
2.390000000000000000e+02,6.724086599999999983e-03
2.400000000000000000e+02,6.715348500000000061e-03
2.410000000000000000e+02,6.706706199999999847e-03
2.420000000000000000e+02,6.698146000000000308e-03
2.430000000000000000e+02,6.689659799999999983e-03
2.440000000000000000e+02,6.681241099999999690e-03
2.450000000000000000e+02,6.672887100000000210e-03
2.460000000000000000e+02,6.664594200000000315e-03
2.470000000000000000e+02,6.656360299999999723e-03
2.480000000000000000e+02,6.648184300000000227e-03
2.490000000000000000e+02,6.640065500000000287e-03
2.500000000000000000e+02,6.632002100000000157e-03
2.510000000000000000e+02,6.623994999999999710e-03
2.520000000000000000e+02,6.616042899999999803e-03
2.530000000000000000e+02,6.608146700000000311e-03
2.540000000000000000e+02,6.600305400000000024e-03
2.550000000000000000e+02,6.592520499999999888e-03
2.560000000000000000e+02,6.584791500000000165e-03
2.570000000000000000e+02,6.577119200000000263e-03
2.580000000000000000e+02,6.569503800000000247e-03
2.590000000000000000e+02,6.561946600000000129e-03
2.600000000000000000e+02,6.554448000000000045e-03
2.610000000000000000e+02,6.547009099999999936e-03
2.620000000000000000e+02,6.539630700000000074e-03
2.630000000000000000e+02,6.532314200000000071e-03
2.640000000000000000e+02,6.525060200000000130e-03
2.650000000000000000e+02,6.517869899999999793e-03
2.660000000000000000e+02,6.510745299999999743e-03
2.670000000000000000e+02,6.503686800000000115e-03
2.680000000000000000e+02,6.496696700000000393e-03
2.690000000000000000e+02,6.489777000000000393e-03
2.700000000000000000e+02,6.482928100000000249e-03
2.710000000000000000e+02,6.476153200000000186e-03
2.720000000000000000e+02,6.469453200000000077e-03
2.730000000000000000e+02,6.462830600000000342e-03
2.740000000000000000e+02,6.456287100000000258e-03
2.750000000000000000e+02,6.449825600000000381e-03
2.760000000000000000e+02,6.443448800000000330e-03
2.770000000000000000e+02,6.437158200000000184e-03
2.780000000000000000e+02,6.430957499999999903e-03
2.790000000000000000e+02,6.424848900000000237e-03
2.800000000000000000e+02,6.418835399999999608e-03
2.810000000000000000e+02,6.412921000000000246e-03
2.820000000000000000e+02,6.407108600000000105e-03
2.830000000000000000e+02,6.401401900000000013e-03
2.840000000000000000e+02,6.395804199999999794e-03
2.850000000000000000e+02,6.390320599999999886e-03
2.860000000000000000e+02,6.384954299999999645e-03
2.870000000000000000e+02,6.379710000000000242e-03
2.880000000000000000e+02,6.374592899999999979e-03
2.890000000000000000e+02,6.369607499999999957e-03
2.900000000000000000e+02,6.364759099999999815e-03
2.910000000000000000e+02,6.360052599999999924e-03
2.920000000000000000e+02,6.355494300000000263e-03
2.930000000000000000e+02,6.351090000000000207e-03
2.940000000000000000e+02,6.346845099999999865e-03
2.950000000000000000e+02,6.342766300000000218e-03
2.960000000000000000e+02,6.338859900000000380e-03
2.970000000000000000e+02,6.335131800000000195e-03
2.980000000000000000e+02,6.331588600000000178e-03
2.990000000000000000e+02,6.328236800000000377e-03
3.000000000000000000e+02,6.325080999999999759e-03
3.010000000000000000e+02,6.322127799999999707e-03
3.020000000000000000e+02,6.319380799999999715e-03
3.030000000000000000e+02,6.316844799999999684e-03
3.040000000000000000e+02,6.314521699999999828e-03
3.050000000000000000e+02,6.312413099999999826e-03
3.060000000000000000e+02,6.310517899999999736e-03
3.070000000000000000e+02,6.308833600000000007e-03
3.080000000000000000e+02,6.307349500000000025e-03
3.090000000000000000e+02,6.306067999999999743e-03
3.100000000000000000e+02,6.304978400000000281e-03
3.110000000000000000e+02,6.304067099999999604e-03
3.120000000000000000e+02,6.303317800000000394e-03
3.130000000000000000e+02,6.302713399999999855e-03
3.140000000000000000e+02,6.302235199999999850e-03
3.150000000000000000e+02,6.301864499999999640e-03
3.160000000000000000e+02,6.301583300000000026e-03
3.170000000000000000e+02,6.301374200000000279e-03
3.180000000000000000e+02,6.301222399999999689e-03
3.190000000000000000e+02,6.301114299999999689e-03
3.200000000000000000e+02,6.301039399999999735e-03
3.210000000000000000e+02,6.300988100000000022e-03
3.220000000000000000e+02,6.300954099999999704e-03
3.230000000000000000e+02,6.300931800000000339e-03
3.240000000000000000e+02,6.300917799999999902e-03
3.250000000000000000e+02,6.300908499999999766e-03
3.260000000000000000e+02,6.300903400000000196e-03
3.270000000000000000e+02,6.300900100000000371e-03
3.280000000000000000e+02,6.300897800000000021e-03
3.290000000000000000e+02,6.300896900000000148e-03
3.300000000000000000e+02,6.300896400000000411e-03
3.310000000000000000e+02,6.300895899999999807e-03
3.320000000000000000e+02,6.300895899999999807e-03
3.330000000000000000e+02,6.300895499999999670e-03
3.340000000000000000e+02,6.300895499999999670e-03
3.350000000000000000e+02,6.300895499999999670e-03
3.360000000000000000e+02,6.300895499999999670e-03
3.370000000000000000e+02,6.300895499999999670e-03
3.380000000000000000e+02,6.300895499999999670e-03
3.390000000000000000e+02,6.300895499999999670e-03
3.400000000000000000e+02,6.300895499999999670e-03
3.410000000000000000e+02,6.300895499999999670e-03
3.420000000000000000e+02,6.300895499999999670e-03
3.430000000000000000e+02,6.300895499999999670e-03
3.440000000000000000e+02,6.300895499999999670e-03
3.450000000000000000e+02,6.300895499999999670e-03
3.460000000000000000e+02,6.300895499999999670e-03
3.470000000000000000e+02,6.300895499999999670e-03
3.480000000000000000e+02,6.300895499999999670e-03
3.490000000000000000e+02,6.300895499999999670e-03
3.500000000000000000e+02,6.300895499999999670e-03
3.510000000000000000e+02,6.300895499999999670e-03
3.520000000000000000e+02,6.300895499999999670e-03
3.530000000000000000e+02,6.300895499999999670e-03
3.540000000000000000e+02,6.300895499999999670e-03
3.550000000000000000e+02,6.300895499999999670e-03
3.560000000000000000e+02,6.300895499999999670e-03
3.570000000000000000e+02,6.300895499999999670e-03
3.580000000000000000e+02,6.300895499999999670e-03
3.590000000000000000e+02,6.300895499999999670e-03
3.600000000000000000e+02,6.300895499999999670e-03
3.610000000000000000e+02,6.300895499999999670e-03
3.620000000000000000e+02,6.300895499999999670e-03
3.630000000000000000e+02,6.300895499999999670e-03
3.640000000000000000e+02,6.300895499999999670e-03
3.650000000000000000e+02,6.300895499999999670e-03
3.660000000000000000e+02,6.300895499999999670e-03
3.670000000000000000e+02,6.300895499999999670e-03
3.680000000000000000e+02,6.300895499999999670e-03
3.690000000000000000e+02,6.300895499999999670e-03
3.700000000000000000e+02,6.300895499999999670e-03
3.710000000000000000e+02,6.300895499999999670e-03
3.720000000000000000e+02,6.300895499999999670e-03
3.730000000000000000e+02,6.300895499999999670e-03
3.740000000000000000e+02,6.300895499999999670e-03
3.750000000000000000e+02,6.300895499999999670e-03
3.760000000000000000e+02,6.300895499999999670e-03
3.770000000000000000e+02,6.300895499999999670e-03
3.780000000000000000e+02,6.300895499999999670e-03
3.790000000000000000e+02,6.300895499999999670e-03
3.800000000000000000e+02,6.300895499999999670e-03
3.810000000000000000e+02,6.300895499999999670e-03
3.820000000000000000e+02,6.300895499999999670e-03
3.830000000000000000e+02,6.300895499999999670e-03
3.840000000000000000e+02,6.300895499999999670e-03
3.850000000000000000e+02,6.300895499999999670e-03
3.860000000000000000e+02,6.300895499999999670e-03
3.870000000000000000e+02,6.300895499999999670e-03
3.880000000000000000e+02,6.300895499999999670e-03
3.890000000000000000e+02,6.300895499999999670e-03
3.900000000000000000e+02,6.300895499999999670e-03
3.910000000000000000e+02,6.300895499999999670e-03
3.920000000000000000e+02,6.300895499999999670e-03
3.930000000000000000e+02,6.300895499999999670e-03
3.940000000000000000e+02,6.300895499999999670e-03
3.950000000000000000e+02,6.300895499999999670e-03
3.960000000000000000e+02,6.300895499999999670e-03
3.970000000000000000e+02,6.300895499999999670e-03
3.980000000000000000e+02,6.300895499999999670e-03
3.990000000000000000e+02,6.300895499999999670e-03
4.000000000000000000e+02,6.300895499999999670e-03
4.010000000000000000e+02,6.300895499999999670e-03
4.020000000000000000e+02,6.300895499999999670e-03
4.030000000000000000e+02,6.300895499999999670e-03
4.040000000000000000e+02,6.300895499999999670e-03
4.050000000000000000e+02,6.300895499999999670e-03
4.060000000000000000e+02,6.300895499999999670e-03
4.070000000000000000e+02,6.300895499999999670e-03
4.080000000000000000e+02,6.300895499999999670e-03
4.090000000000000000e+02,6.300895499999999670e-03
4.100000000000000000e+02,6.300895499999999670e-03
4.110000000000000000e+02,6.300895499999999670e-03
4.120000000000000000e+02,6.300895499999999670e-03
4.130000000000000000e+02,6.300895499999999670e-03
4.140000000000000000e+02,6.300895499999999670e-03
4.150000000000000000e+02,6.300895499999999670e-03
4.160000000000000000e+02,6.300895499999999670e-03
4.170000000000000000e+02,6.300895499999999670e-03
4.180000000000000000e+02,6.300895499999999670e-03
4.190000000000000000e+02,6.300895499999999670e-03
4.200000000000000000e+02,6.300895499999999670e-03
4.210000000000000000e+02,6.300895499999999670e-03
4.220000000000000000e+02,6.300895499999999670e-03
4.230000000000000000e+02,6.300895499999999670e-03
4.240000000000000000e+02,6.300895499999999670e-03
4.250000000000000000e+02,6.300895499999999670e-03
4.260000000000000000e+02,6.300895499999999670e-03
4.270000000000000000e+02,6.300895499999999670e-03
4.280000000000000000e+02,6.300895499999999670e-03
4.290000000000000000e+02,6.300895499999999670e-03
4.300000000000000000e+02,6.300895499999999670e-03
4.310000000000000000e+02,6.300895499999999670e-03
4.320000000000000000e+02,6.300895499999999670e-03
4.330000000000000000e+02,6.300895499999999670e-03
4.340000000000000000e+02,6.300895499999999670e-03
4.350000000000000000e+02,6.300895499999999670e-03
4.360000000000000000e+02,6.300895499999999670e-03
4.370000000000000000e+02,6.300895499999999670e-03
4.380000000000000000e+02,6.300895499999999670e-03
4.390000000000000000e+02,6.300895499999999670e-03
4.400000000000000000e+02,6.300895499999999670e-03
4.410000000000000000e+02,6.300895499999999670e-03
4.420000000000000000e+02,6.300895499999999670e-03
4.430000000000000000e+02,6.300895499999999670e-03
4.440000000000000000e+02,6.300895499999999670e-03
4.450000000000000000e+02,6.300895499999999670e-03
4.460000000000000000e+02,6.300895499999999670e-03
4.470000000000000000e+02,6.300895499999999670e-03
4.480000000000000000e+02,6.300895499999999670e-03
4.490000000000000000e+02,6.300895499999999670e-03
4.500000000000000000e+02,6.300895499999999670e-03
4.510000000000000000e+02,6.300895499999999670e-03
4.520000000000000000e+02,6.300895499999999670e-03
4.530000000000000000e+02,6.300895499999999670e-03
4.540000000000000000e+02,6.300895499999999670e-03
4.550000000000000000e+02,6.300895499999999670e-03
4.560000000000000000e+02,6.300895499999999670e-03
4.570000000000000000e+02,6.300895499999999670e-03
4.580000000000000000e+02,6.300895499999999670e-03
4.590000000000000000e+02,6.300895499999999670e-03
4.600000000000000000e+02,6.300895499999999670e-03
4.610000000000000000e+02,6.300895499999999670e-03
4.620000000000000000e+02,6.300895499999999670e-03
4.630000000000000000e+02,6.300895499999999670e-03
4.640000000000000000e+02,6.300895499999999670e-03
4.650000000000000000e+02,6.300895499999999670e-03
4.660000000000000000e+02,6.300895499999999670e-03
4.670000000000000000e+02,6.300895499999999670e-03
4.680000000000000000e+02,6.300895499999999670e-03
4.690000000000000000e+02,6.300895499999999670e-03
4.700000000000000000e+02,6.300895499999999670e-03
4.710000000000000000e+02,6.300895499999999670e-03
4.720000000000000000e+02,6.300895499999999670e-03
4.730000000000000000e+02,6.300895499999999670e-03
4.740000000000000000e+02,6.300895499999999670e-03
4.750000000000000000e+02,6.300895499999999670e-03
4.760000000000000000e+02,6.300895499999999670e-03
4.770000000000000000e+02,6.300895499999999670e-03
4.780000000000000000e+02,6.300895499999999670e-03
4.790000000000000000e+02,6.300895499999999670e-03
4.800000000000000000e+02,6.300895499999999670e-03
4.810000000000000000e+02,6.300895499999999670e-03
4.820000000000000000e+02,6.300895499999999670e-03
4.830000000000000000e+02,6.300895499999999670e-03
4.840000000000000000e+02,6.300895499999999670e-03
4.850000000000000000e+02,6.300895499999999670e-03
4.860000000000000000e+02,6.300895499999999670e-03
4.870000000000000000e+02,6.300895499999999670e-03
4.880000000000000000e+02,6.300895499999999670e-03
4.890000000000000000e+02,6.300895499999999670e-03
4.900000000000000000e+02,6.300895499999999670e-03
4.910000000000000000e+02,6.300895499999999670e-03
4.920000000000000000e+02,6.300895499999999670e-03
4.930000000000000000e+02,6.300895499999999670e-03
4.940000000000000000e+02,6.300895499999999670e-03
4.950000000000000000e+02,6.300895499999999670e-03
4.960000000000000000e+02,6.300895499999999670e-03
4.970000000000000000e+02,6.300895499999999670e-03
4.980000000000000000e+02,6.300895499999999670e-03
4.990000000000000000e+02,6.300895499999999670e-03
5.000000000000000000e+02,6.300895499999999670e-03
5.010000000000000000e+02,6.300895499999999670e-03
5.020000000000000000e+02,6.300895499999999670e-03
5.030000000000000000e+02,6.300895499999999670e-03
5.040000000000000000e+02,6.300895499999999670e-03
5.050000000000000000e+02,6.300895499999999670e-03
5.060000000000000000e+02,6.300895499999999670e-03
5.070000000000000000e+02,6.300895499999999670e-03
5.080000000000000000e+02,6.300895499999999670e-03
5.090000000000000000e+02,6.300895499999999670e-03
5.100000000000000000e+02,6.300895499999999670e-03
5.110000000000000000e+02,6.300895499999999670e-03
5.120000000000000000e+02,6.300895499999999670e-03
5.130000000000000000e+02,6.300895499999999670e-03
5.140000000000000000e+02,6.300895499999999670e-03
5.150000000000000000e+02,6.300895499999999670e-03
5.160000000000000000e+02,6.300895499999999670e-03
5.170000000000000000e+02,6.300895499999999670e-03
5.180000000000000000e+02,6.300895499999999670e-03
5.190000000000000000e+02,6.300895499999999670e-03
5.200000000000000000e+02,6.300895499999999670e-03
5.210000000000000000e+02,6.300895499999999670e-03
5.220000000000000000e+02,6.300895499999999670e-03
5.230000000000000000e+02,6.300895499999999670e-03
5.240000000000000000e+02,6.300895499999999670e-03
5.250000000000000000e+02,6.300895499999999670e-03
5.260000000000000000e+02,6.300895499999999670e-03
5.270000000000000000e+02,6.300895499999999670e-03
5.280000000000000000e+02,6.300895499999999670e-03
5.290000000000000000e+02,6.300895499999999670e-03
5.300000000000000000e+02,6.300895499999999670e-03
5.310000000000000000e+02,6.300895499999999670e-03
5.320000000000000000e+02,6.300895499999999670e-03
5.330000000000000000e+02,6.300895499999999670e-03
5.340000000000000000e+02,6.300895499999999670e-03
5.350000000000000000e+02,6.300895499999999670e-03
5.360000000000000000e+02,6.300895499999999670e-03
5.370000000000000000e+02,6.300895499999999670e-03
5.380000000000000000e+02,6.300895499999999670e-03
5.390000000000000000e+02,6.300895499999999670e-03
5.400000000000000000e+02,6.300895499999999670e-03
5.410000000000000000e+02,6.300895499999999670e-03
5.420000000000000000e+02,6.300895499999999670e-03
5.430000000000000000e+02,6.300895499999999670e-03
5.440000000000000000e+02,6.300895499999999670e-03
5.450000000000000000e+02,6.300895499999999670e-03
5.460000000000000000e+02,6.300895499999999670e-03
5.470000000000000000e+02,6.300895499999999670e-03
5.480000000000000000e+02,6.300895499999999670e-03
5.490000000000000000e+02,6.300895499999999670e-03
5.500000000000000000e+02,6.300895499999999670e-03
5.510000000000000000e+02,6.300895499999999670e-03
5.520000000000000000e+02,6.300895499999999670e-03
5.530000000000000000e+02,6.300895499999999670e-03
5.540000000000000000e+02,6.300895499999999670e-03
5.550000000000000000e+02,6.300895499999999670e-03
5.560000000000000000e+02,6.300895499999999670e-03
5.570000000000000000e+02,6.300895499999999670e-03
5.580000000000000000e+02,6.300895499999999670e-03
5.590000000000000000e+02,6.300895499999999670e-03
5.600000000000000000e+02,6.300895499999999670e-03
5.610000000000000000e+02,6.300895499999999670e-03
5.620000000000000000e+02,6.300895499999999670e-03
5.630000000000000000e+02,6.300895499999999670e-03
5.640000000000000000e+02,6.300895499999999670e-03
5.650000000000000000e+02,6.300895499999999670e-03
5.660000000000000000e+02,6.300895499999999670e-03
5.670000000000000000e+02,6.300895499999999670e-03
5.680000000000000000e+02,6.300895499999999670e-03
5.690000000000000000e+02,6.300895499999999670e-03
5.700000000000000000e+02,6.300895499999999670e-03
5.710000000000000000e+02,6.300895499999999670e-03
5.720000000000000000e+02,6.300895499999999670e-03
5.730000000000000000e+02,6.300895499999999670e-03
5.740000000000000000e+02,6.300895499999999670e-03
5.750000000000000000e+02,6.300895499999999670e-03
5.760000000000000000e+02,6.300895499999999670e-03
5.770000000000000000e+02,6.300895499999999670e-03
5.780000000000000000e+02,6.300895499999999670e-03
5.790000000000000000e+02,6.300895499999999670e-03
5.800000000000000000e+02,6.300895499999999670e-03
5.810000000000000000e+02,6.300895499999999670e-03
5.820000000000000000e+02,6.300895499999999670e-03
5.830000000000000000e+02,6.300895499999999670e-03
5.840000000000000000e+02,6.300895499999999670e-03
5.850000000000000000e+02,6.300895499999999670e-03
5.860000000000000000e+02,6.300895499999999670e-03
5.870000000000000000e+02,6.300895499999999670e-03
5.880000000000000000e+02,6.300895499999999670e-03
5.890000000000000000e+02,6.300895499999999670e-03
5.900000000000000000e+02,6.300895499999999670e-03
5.910000000000000000e+02,6.300895499999999670e-03
5.920000000000000000e+02,6.300895499999999670e-03
5.930000000000000000e+02,6.300895499999999670e-03
5.940000000000000000e+02,6.300895499999999670e-03
5.950000000000000000e+02,6.300895499999999670e-03
5.960000000000000000e+02,6.300895499999999670e-03
5.970000000000000000e+02,6.300895499999999670e-03
5.980000000000000000e+02,6.300895499999999670e-03
5.990000000000000000e+02,6.300895499999999670e-03