# Time [s], Mass [Kg]
1.000000000000000000e+00,1.000000000000000000e+00
2.000000000000000000e+00,1.000000000000000000e+00
3.000000000000000000e+00,1.000000000000000000e+00
4.000000000000000000e+00,1.000000000000000000e+00
5.000000000000000000e+00,1.000000000000000000e+00
6.000000000000000000e+00,1.000000000000000000e+00
7.000000000000000000e+00,9.999998799999999521e-01
8.000000000000000000e+00,9.999990500000000004e-01
9.000000000000000000e+00,9.999947000000000141e-01
1.000000000000000000e+01,9.999741899999999850e-01
1.100000000000000000e+01,9.999059399999999931e-01
1.200000000000000000e+01,9.997284400000000515e-01
1.300000000000000000e+01,9.993376099999999873e-01
1.400000000000000000e+01,9.985946399999999779e-01
1.500000000000000000e+01,9.973791199999999524e-01
1.600000000000000000e+01,9.954966899999999619e-01
1.700000000000000000e+01,9.934022999999999604e-01
1.800000000000000000e+01,9.909102300000000030e-01
1.900000000000000000e+01,9.882374400000000225e-01
2.000000000000000000e+01,9.854402500000000176e-01
2.100000000000000000e+01,9.827991099999999758e-01
2.200000000000000000e+01,9.802114400000000449e-01
2.300000000000000000e+01,9.778797000000000184e-01
2.400000000000000000e+01,9.758633399999999680e-01
2.500000000000000000e+01,9.740002199999999721e-01
2.600000000000000000e+01,9.721546800000000488e-01
2.700000000000000000e+01,9.701497000000000037e-01
2.800000000000000000e+01,9.679036699999999938e-01
2.900000000000000000e+01,9.654756199999999788e-01
3.000000000000000000e+01,9.629786000000000179e-01
3.100000000000000000e+01,9.605005399999999582e-01
3.200000000000000000e+01,9.581097400000000430e-01
3.300000000000000000e+01,9.558575200000000160e-01
3.400000000000000000e+01,9.537625899999999657e-01
3.500000000000000000e+01,9.518089299999999975e-01
3.600000000000000000e+01,9.499317400000000244e-01
3.700000000000000000e+01,9.480391099999999627e-01
3.800000000000000000e+01,9.460504100000000083e-01
3.900000000000000000e+01,9.439373599999999476e-01
4.000000000000000000e+01,9.417251899999999898e-01
4.100000000000000000e+01,9.394684399999999602e-01
4.200000000000000000e+01,9.372242699999999704e-01
4.300000000000000000e+01,9.350398800000000454e-01
4.400000000000000000e+01,9.329473400000000138e-01
4.500000000000000000e+01,9.309582100000000082e-01
4.600000000000000000e+01,9.290623099999999468e-01
4.700000000000000000e+01,9.272255299999999645e-01
4.800000000000000000e+01,9.254025200000000062e-01
4.900000000000000000e+01,9.235469699999999671e-01
5.000000000000000000e+01,9.216327699999999901e-01
5.100000000000000000e+01,9.196558599999999917e-01
5.200000000000000000e+01,9.176355000000000484e-01
5.300000000000000000e+01,9.155996400000000479e-01
5.400000000000000000e+01,9.135785100000000103e-01
5.500000000000000000e+01,9.115974300000000419e-01
5.600000000000000000e+01,9.096735099999999630e-01
5.700000000000000000e+01,9.078112200000000298e-01
5.800000000000000000e+01,9.060036500000000492e-01
5.900000000000000000e+01,9.042339900000000430e-01
6.000000000000000000e+01,9.024779200000000445e-01
6.100000000000000000e+01,9.007107600000000547e-01
6.200000000000000000e+01,8.989157100000000344e-01
6.300000000000000000e+01,8.970861399999999763e-01
6.400000000000000000e+01,8.952263599999999988e-01
6.500000000000000000e+01,8.933491099999999463e-01
6.600000000000000000e+01,8.914692400000000516e-01
6.700000000000000000e+01,8.896034999999999915e-01
6.800000000000000000e+01,8.873843000000000147e-01
6.900000000000000000e+01,8.854084599999999527e-01
7.000000000000000000e+01,8.835205400000000209e-01
7.100000000000000000e+01,8.817227499999999996e-01
7.200000000000000000e+01,8.799705500000000180e-01
7.300000000000000000e+01,8.782240700000000233e-01
7.400000000000000000e+01,8.764618600000000370e-01
7.500000000000000000e+01,8.746702699999999719e-01
7.600000000000000000e+01,8.728496999999999506e-01
7.700000000000000000e+01,8.710076199999999824e-01
7.800000000000000000e+01,8.691551699999999769e-01
7.900000000000000000e+01,8.673049200000000347e-01
8.000000000000000000e+01,8.654673699999999581e-01
8.100000000000000000e+01,8.636495499999999881e-01
8.200000000000000000e+01,8.618543100000000123e-01
8.300000000000000000e+01,8.600797700000000212e-01
8.400000000000000000e+01,8.583203000000000360e-01
8.500000000000000000e+01,8.565667300000000539e-01
8.600000000000000000e+01,8.548095799999999578e-01
8.700000000000000000e+01,8.530398599999999831e-01
8.800000000000000000e+01,8.512519600000000297e-01
8.900000000000000000e+01,8.494435500000000472e-01
9.000000000000000000e+01,8.476165500000000241e-01
9.100000000000000000e+01,8.457751900000000100e-01
9.200000000000000000e+01,8.439257700000000195e-01
9.300000000000000000e+01,8.420743899999999504e-01
9.400000000000000000e+01,8.402263500000000107e-01
9.500000000000000000e+01,8.383836199999999961e-01
9.600000000000000000e+01,8.365468400000000138e-01
9.700000000000000000e+01,8.347132800000000019e-01
9.800000000000000000e+01,8.328791899999999915e-01
9.900000000000000000e+01,8.310385900000000214e-01
1.000000000000000000e+02,8.291861999999999844e-01
1.010000000000000000e+02,8.273177699999999524e-01
1.020000000000000000e+02,8.254311100000000234e-01
1.030000000000000000e+02,8.235260800000000492e-01
1.040000000000000000e+02,8.216044900000000206e-01
1.050000000000000000e+02,8.196693099999999843e-01
1.060000000000000000e+02,8.177239899999999562e-01
1.070000000000000000e+02,8.157714600000000038e-01
1.080000000000000000e+02,8.138130300000000483e-01
1.090000000000000000e+02,8.118490000000000428e-01
1.100000000000000000e+02,8.098773999999999695e-01
1.110000000000000000e+02,8.078957799999999523e-01
1.120000000000000000e+02,8.059003399999999928e-01
1.130000000000000000e+02,8.038876099999999747e-01
1.140000000000000000e+02,8.018545500000000548e-01
1.150000000000000000e+02,7.997994999999999965e-01
1.160000000000000000e+02,7.977220999999999895e-01
1.170000000000000000e+02,7.956232399999999538e-01
1.180000000000000000e+02,7.935047100000000020e-01
1.190000000000000000e+02,7.913675300000000412e-01
1.200000000000000000e+02,7.892130600000000218e-01
1.210000000000000000e+02,7.870413099999999940e-01
1.220000000000000000e+02,7.848514899999999850e-01
1.230000000000000000e+02,7.823424300000000331e-01
1.240000000000000000e+02,7.799682000000000004e-01
1.250000000000000000e+02,7.776264499999999691e-01
1.260000000000000000e+02,7.752888799999999581e-01
1.270000000000000000e+02,7.729388499999999551e-01
1.280000000000000000e+02,7.705695000000000183e-01
1.290000000000000000e+02,7.681773899999999600e-01
1.300000000000000000e+02,7.657608999999999666e-01
1.310000000000000000e+02,7.633193700000000526e-01
1.320000000000000000e+02,7.608511399999999814e-01
1.330000000000000000e+02,7.583537099999999587e-01
1.340000000000000000e+02,7.558243900000000126e-01
1.350000000000000000e+02,7.532600200000000301e-01
1.360000000000000000e+02,7.506583300000000403e-01
1.370000000000000000e+02,7.480170099999999822e-01
1.380000000000000000e+02,7.453353400000000129e-01
1.390000000000000000e+02,7.426134899999999872e-01
1.400000000000000000e+02,7.398524899999999738e-01
1.410000000000000000e+02,7.370537499999999520e-01
1.420000000000000000e+02,7.342190699999999737e-01
1.430000000000000000e+02,7.313499999999999446e-01
1.440000000000000000e+02,7.284478500000000079e-01
1.450000000000000000e+02,7.255138800000000554e-01
1.460000000000000000e+02,7.225489000000000495e-01
1.470000000000000000e+02,7.195543100000000303e-01
1.480000000000000000e+02,7.165314000000000405e-01
1.490000000000000000e+02,7.134826800000000357e-01
1.500000000000000000e+02,7.104105899999999529e-01
1.510000000000000000e+02,7.073184300000000535e-01
1.520000000000000000e+02,7.042096899999999993e-01
1.530000000000000000e+02,7.010877100000000306e-01
1.540000000000000000e+02,6.979559100000000127e-01
1.550000000000000000e+02,6.948175399999999557e-01
1.560000000000000000e+02,6.916754200000000408e-01
1.570000000000000000e+02,6.885321100000000305e-01
1.580000000000000000e+02,6.853901700000000208e-01
1.590000000000000000e+02,6.822522899999999835e-01
1.600000000000000000e+02,6.791209599999999957e-01
1.610000000000000000e+02,6.759986300000000448e-01
1.620000000000000000e+02,6.726400300000000554e-01
1.630000000000000000e+02,6.694037299999999746e-01
1.640000000000000000e+02,6.662381899999999524e-01
1.650000000000000000e+02,6.631224799999999586e-01
1.660000000000000000e+02,6.600457400000000474e-01
1.670000000000000000e+02,6.570019700000000462e-01
1.680000000000000000e+02,6.539884200000000147e-01
1.690000000000000000e+02,6.510038999999999687e-01
1.700000000000000000e+02,6.480479799999999679e-01
1.710000000000000000e+02,6.451209199999999866e-01
1.720000000000000000e+02,6.422232399999999730e-01
1.730000000000000000e+02,6.393553600000000392e-01
1.740000000000000000e+02,6.365180599999999966e-01
1.750000000000000000e+02,6.337124699999999722e-01
1.760000000000000000e+02,6.309397199999999817e-01
1.770000000000000000e+02,6.282015399999999472e-01
1.780000000000000000e+02,6.254996699999999521e-01
1.790000000000000000e+02,6.228360499999999744e-01
1.800000000000000000e+02,6.202130300000000540e-01
1.810000000000000000e+02,6.176329900000000483e-01
1.820000000000000000e+02,6.150986000000000509e-01
1.830000000000000000e+02,6.126127799999999679e-01
1.840000000000000000e+02,6.101787100000000130e-01
1.850000000000000000e+02,6.078000700000000256e-01
1.860000000000000000e+02,6.054810299999999756e-01
1.870000000000000000e+02,6.032262400000000246e-01
1.880000000000000000e+02,6.010410200000000369e-01
1.890000000000000000e+02,5.989314300000000424e-01
1.900000000000000000e+02,5.969042799999999538e-01
1.910000000000000000e+02,5.949672499999999475e-01
1.920000000000000000e+02,5.931290399999999963e-01
1.930000000000000000e+02,5.913993699999999798e-01
1.940000000000000000e+02,5.897889099999999996e-01
1.950000000000000000e+02,5.883095900000000489e-01
1.960000000000000000e+02,5.869739099999999876e-01
1.970000000000000000e+02,5.857943300000000297e-01
1.980000000000000000e+02,5.847821800000000403e-01
1.990000000000000000e+02,5.839459299999999464e-01
2.000000000000000000e+02,5.832883100000000320e-01
2.010000000000000000e+02,5.828030699999999786e-01
2.020000000000000000e+02,5.824726199999999965e-01
2.030000000000000000e+02,5.822681199999999446e-01
2.040000000000000000e+02,5.821541500000000369e-01
2.050000000000000000e+02,5.820967599999999909e-01
2.060000000000000000e+02,5.820700500000000055e-01
2.070000000000000000e+02,5.820581900000000308e-01
2.080000000000000000e+02,5.820530099999999818e-01
2.090000000000000000e+02,5.820507400000000109e-01
2.100000000000000000e+02,5.820497900000000113e-01
2.110000000000000000e+02,5.820493100000000419e-01
2.120000000000000000e+02,5.820490699999999462e-01
2.130000000000000000e+02,5.820490099999999778e-01
2.140000000000000000e+02,5.820489500000000094e-01
2.150000000000000000e+02,5.820489500000000094e-01
2.160000000000000000e+02,5.820488900000000410e-01
2.170000000000000000e+02,5.820488900000000410e-01
2.180000000000000000e+02,5.820488900000000410e-01
2.190000000000000000e+02,5.820488900000000410e-01
2.200000000000000000e+02,5.820488900000000410e-01
2.210000000000000000e+02,5.820488900000000410e-01
2.220000000000000000e+02,5.820488900000000410e-01
2.230000000000000000e+02,5.820488900000000410e-01
2.240000000000000000e+02,5.820488900000000410e-01
2.250000000000000000e+02,5.820488900000000410e-01
2.260000000000000000e+02,5.820488900000000410e-01
2.270000000000000000e+02,5.820488900000000410e-01
2.280000000000000000e+02,5.820488900000000410e-01
2.290000000000000000e+02,5.820488900000000410e-01
2.300000000000000000e+02,5.820488900000000410e-01
2.310000000000000000e+02,5.820488900000000410e-01
2.320000000000000000e+02,5.820488900000000410e-01
2.330000000000000000e+02,5.820488900000000410e-01
2.340000000000000000e+02,5.820488900000000410e-01
2.350000000000000000e+02,5.820488900000000410e-01
2.360000000000000000e+02,5.820488900000000410e-01
2.370000000000000000e+02,5.820488900000000410e-01
2.380000000000000000e+02,5.820488900000000410e-01
2.390000000000000000e+02,5.820488900000000410e-01
2.400000000000000000e+02,5.820488900000000410e-01
2.410000000000000000e+02,5.820488900000000410e-01
2.420000000000000000e+02,5.820488900000000410e-01
2.430000000000000000e+02,5.820488900000000410e-01
2.440000000000000000e+02,5.820488900000000410e-01
2.450000000000000000e+02,5.820488900000000410e-01
2.460000000000000000e+02,5.820488900000000410e-01
2.470000000000000000e+02,5.820488900000000410e-01
2.480000000000000000e+02,5.820488900000000410e-01
2.490000000000000000e+02,5.820488900000000410e-01
2.500000000000000000e+02,5.820488900000000410e-01
2.510000000000000000e+02,5.820488900000000410e-01
2.520000000000000000e+02,5.820488900000000410e-01
2.530000000000000000e+02,5.820488900000000410e-01
2.540000000000000000e+02,5.820488900000000410e-01
2.550000000000000000e+02,5.820488900000000410e-01
2.560000000000000000e+02,5.820488900000000410e-01
2.570000000000000000e+02,5.820488900000000410e-01
2.580000000000000000e+02,5.820488900000000410e-01
2.590000000000000000e+02,5.820488900000000410e-01
2.600000000000000000e+02,5.820488900000000410e-01
2.610000000000000000e+02,5.820488900000000410e-01
2.620000000000000000e+02,5.820488900000000410e-01
2.630000000000000000e+02,5.820488900000000410e-01
2.640000000000000000e+02,5.820488900000000410e-01
2.650000000000000000e+02,5.820488900000000410e-01
2.660000000000000000e+02,5.820488900000000410e-01
2.670000000000000000e+02,5.820488900000000410e-01
2.680000000000000000e+02,5.820488900000000410e-01
2.690000000000000000e+02,5.820488900000000410e-01
2.700000000000000000e+02,5.820488900000000410e-01
2.710000000000000000e+02,5.820488900000000410e-01
2.720000000000000000e+02,5.820488900000000410e-01
2.730000000000000000e+02,5.820488900000000410e-01
2.740000000000000000e+02,5.820488900000000410e-01
2.750000000000000000e+02,5.820488900000000410e-01
2.760000000000000000e+02,5.820488900000000410e-01
2.770000000000000000e+02,5.820488900000000410e-01
2.780000000000000000e+02,5.820488900000000410e-01
2.790000000000000000e+02,5.820488900000000410e-01
2.800000000000000000e+02,5.820488900000000410e-01
2.810000000000000000e+02,5.820488900000000410e-01
2.820000000000000000e+02,5.820488900000000410e-01
2.830000000000000000e+02,5.820488900000000410e-01
2.840000000000000000e+02,5.820488900000000410e-01
2.850000000000000000e+02,5.820488900000000410e-01
2.860000000000000000e+02,5.820488900000000410e-01
2.870000000000000000e+02,5.820488900000000410e-01
2.880000000000000000e+02,5.820488900000000410e-01
2.890000000000000000e+02,5.820488900000000410e-01
2.900000000000000000e+02,5.820488900000000410e-01
2.910000000000000000e+02,5.820488900000000410e-01
2.920000000000000000e+02,5.820488900000000410e-01
2.930000000000000000e+02,5.820488900000000410e-01
2.940000000000000000e+02,5.820488900000000410e-01
2.950000000000000000e+02,5.820488900000000410e-01
2.960000000000000000e+02,5.820488900000000410e-01
2.970000000000000000e+02,5.820488900000000410e-01
2.980000000000000000e+02,5.820488900000000410e-01
2.990000000000000000e+02,5.820488900000000410e-01
3.000000000000000000e+02,5.820488900000000410e-01
3.010000000000000000e+02,5.820488900000000410e-01
3.020000000000000000e+02,5.820488900000000410e-01
3.030000000000000000e+02,5.820488900000000410e-01
3.040000000000000000e+02,5.820488900000000410e-01
3.050000000000000000e+02,5.820488900000000410e-01
3.060000000000000000e+02,5.820488900000000410e-01
3.070000000000000000e+02,5.820488900000000410e-01
3.080000000000000000e+02,5.820488900000000410e-01
3.090000000000000000e+02,5.820488900000000410e-01
3.100000000000000000e+02,5.820488900000000410e-01
3.110000000000000000e+02,5.820488900000000410e-01
3.120000000000000000e+02,5.820488900000000410e-01
3.130000000000000000e+02,5.820488900000000410e-01
3.140000000000000000e+02,5.820488900000000410e-01
3.150000000000000000e+02,5.820488900000000410e-01
3.160000000000000000e+02,5.820488900000000410e-01
3.170000000000000000e+02,5.820488900000000410e-01
3.180000000000000000e+02,5.820488900000000410e-01
3.190000000000000000e+02,5.820488900000000410e-01
3.200000000000000000e+02,5.820488900000000410e-01
3.210000000000000000e+02,5.820488900000000410e-01
3.220000000000000000e+02,5.820488900000000410e-01
3.230000000000000000e+02,5.820488900000000410e-01
3.240000000000000000e+02,5.820488900000000410e-01
3.250000000000000000e+02,5.820488900000000410e-01
3.260000000000000000e+02,5.820488900000000410e-01
3.270000000000000000e+02,5.820488900000000410e-01
3.280000000000000000e+02,5.820488900000000410e-01
3.290000000000000000e+02,5.820488900000000410e-01
3.300000000000000000e+02,5.820488900000000410e-01
3.310000000000000000e+02,5.820488900000000410e-01
3.320000000000000000e+02,5.820488900000000410e-01
3.330000000000000000e+02,5.820488900000000410e-01
3.340000000000000000e+02,5.820488900000000410e-01
3.350000000000000000e+02,5.820488900000000410e-01
3.360000000000000000e+02,5.820488900000000410e-01
3.370000000000000000e+02,5.820488900000000410e-01
3.380000000000000000e+02,5.820488900000000410e-01
3.390000000000000000e+02,5.820488900000000410e-01
3.400000000000000000e+02,5.820488900000000410e-01
3.410000000000000000e+02,5.820488900000000410e-01
3.420000000000000000e+02,5.820488900000000410e-01
3.430000000000000000e+02,5.820488900000000410e-01
3.440000000000000000e+02,5.820488900000000410e-01
3.450000000000000000e+02,5.820488900000000410e-01
3.460000000000000000e+02,5.820488900000000410e-01
3.470000000000000000e+02,5.820488900000000410e-01
3.480000000000000000e+02,5.820488900000000410e-01
3.490000000000000000e+02,5.820488900000000410e-01
3.500000000000000000e+02,5.820488900000000410e-01
3.510000000000000000e+02,5.820488900000000410e-01
3.520000000000000000e+02,5.820488900000000410e-01
3.530000000000000000e+02,5.820488900000000410e-01
3.540000000000000000e+02,5.820488900000000410e-01
3.550000000000000000e+02,5.820488900000000410e-01
3.560000000000000000e+02,5.820488900000000410e-01
3.570000000000000000e+02,5.820488900000000410e-01
3.580000000000000000e+02,5.820488900000000410e-01
3.590000000000000000e+02,5.820488900000000410e-01
3.600000000000000000e+02,5.820488900000000410e-01
3.610000000000000000e+02,5.820488900000000410e-01
3.620000000000000000e+02,5.820488900000000410e-01
3.630000000000000000e+02,5.820488900000000410e-01
3.640000000000000000e+02,5.820488900000000410e-01
3.650000000000000000e+02,5.820488900000000410e-01
3.660000000000000000e+02,5.820488900000000410e-01
3.670000000000000000e+02,5.820488900000000410e-01
3.680000000000000000e+02,5.820488900000000410e-01
3.690000000000000000e+02,5.820488900000000410e-01
3.700000000000000000e+02,5.820488900000000410e-01
3.710000000000000000e+02,5.820488900000000410e-01
3.720000000000000000e+02,5.820488900000000410e-01
3.730000000000000000e+02,5.820488900000000410e-01
3.740000000000000000e+02,5.820488900000000410e-01
3.750000000000000000e+02,5.820488900000000410e-01
3.760000000000000000e+02,5.820488900000000410e-01
3.770000000000000000e+02,5.820488900000000410e-01
3.780000000000000000e+02,5.820488900000000410e-01
3.790000000000000000e+02,5.820488900000000410e-01
3.800000000000000000e+02,5.820488900000000410e-01
3.810000000000000000e+02,5.820488900000000410e-01
3.820000000000000000e+02,5.820488900000000410e-01
3.830000000000000000e+02,5.820488900000000410e-01
3.840000000000000000e+02,5.820488900000000410e-01
3.850000000000000000e+02,5.820488900000000410e-01
3.860000000000000000e+02,5.820488900000000410e-01
3.870000000000000000e+02,5.820488900000000410e-01
3.880000000000000000e+02,5.820488900000000410e-01
3.890000000000000000e+02,5.820488900000000410e-01
3.900000000000000000e+02,5.820488900000000410e-01
3.910000000000000000e+02,5.820488900000000410e-01
3.920000000000000000e+02,5.820488900000000410e-01
3.930000000000000000e+02,5.820488900000000410e-01
3.940000000000000000e+02,5.820488900000000410e-01
3.950000000000000000e+02,5.820488900000000410e-01
3.960000000000000000e+02,5.820488900000000410e-01
3.970000000000000000e+02,5.820488900000000410e-01
3.980000000000000000e+02,5.820488900000000410e-01
3.990000000000000000e+02,5.820488900000000410e-01
4.000000000000000000e+02,5.820488900000000410e-01
4.010000000000000000e+02,5.820488900000000410e-01
4.020000000000000000e+02,5.820488900000000410e-01
4.030000000000000000e+02,5.820488900000000410e-01
4.040000000000000000e+02,5.820488900000000410e-01
4.050000000000000000e+02,5.820488900000000410e-01
4.060000000000000000e+02,5.820488900000000410e-01
4.070000000000000000e+02,5.820488900000000410e-01
4.080000000000000000e+02,5.820488900000000410e-01
4.090000000000000000e+02,5.820488900000000410e-01
4.100000000000000000e+02,5.820488900000000410e-01
4.110000000000000000e+02,5.820488900000000410e-01
4.120000000000000000e+02,5.820488900000000410e-01
4.130000000000000000e+02,5.820488900000000410e-01
4.140000000000000000e+02,5.820488900000000410e-01
4.150000000000000000e+02,5.820488900000000410e-01
4.160000000000000000e+02,5.820488900000000410e-01
4.170000000000000000e+02,5.820488900000000410e-01
4.180000000000000000e+02,5.820488900000000410e-01
4.190000000000000000e+02,5.820488900000000410e-01
4.200000000000000000e+02,5.820488900000000410e-01
4.210000000000000000e+02,5.820488900000000410e-01
4.220000000000000000e+02,5.820488900000000410e-01
4.230000000000000000e+02,5.820488900000000410e-01
4.240000000000000000e+02,5.820488900000000410e-01
4.250000000000000000e+02,5.820488900000000410e-01
4.260000000000000000e+02,5.820488900000000410e-01
4.270000000000000000e+02,5.820488900000000410e-01
4.280000000000000000e+02,5.820488900000000410e-01
4.290000000000000000e+02,5.820488900000000410e-01
4.300000000000000000e+02,5.820488900000000410e-01
4.310000000000000000e+02,5.820488900000000410e-01
4.320000000000000000e+02,5.820488900000000410e-01
4.330000000000000000e+02,5.820488900000000410e-01
4.340000000000000000e+02,5.820488900000000410e-01
4.350000000000000000e+02,5.820488900000000410e-01
4.360000000000000000e+02,5.820488900000000410e-01
4.370000000000000000e+02,5.820488900000000410e-01
4.380000000000000000e+02,5.820488900000000410e-01
4.390000000000000000e+02,5.820488900000000410e-01
4.400000000000000000e+02,5.820488900000000410e-01
4.410000000000000000e+02,5.820488900000000410e-01
4.420000000000000000e+02,5.820488900000000410e-01
4.430000000000000000e+02,5.820488900000000410e-01
4.440000000000000000e+02,5.820488900000000410e-01
4.450000000000000000e+02,5.820488900000000410e-01
4.460000000000000000e+02,5.820488900000000410e-01
4.470000000000000000e+02,5.820488900000000410e-01
4.480000000000000000e+02,5.820488900000000410e-01
4.490000000000000000e+02,5.820488900000000410e-01
4.500000000000000000e+02,5.820488900000000410e-01
4.510000000000000000e+02,5.820488900000000410e-01
4.520000000000000000e+02,5.820488900000000410e-01
4.530000000000000000e+02,5.820488900000000410e-01
4.540000000000000000e+02,5.820488900000000410e-01
4.550000000000000000e+02,5.820488900000000410e-01
4.560000000000000000e+02,5.820488900000000410e-01
4.570000000000000000e+02,5.820488900000000410e-01
4.580000000000000000e+02,5.820488900000000410e-01
4.590000000000000000e+02,5.820488900000000410e-01
4.600000000000000000e+02,5.820488900000000410e-01
4.610000000000000000e+02,5.820488900000000410e-01
4.620000000000000000e+02,5.820488900000000410e-01
4.630000000000000000e+02,5.820488900000000410e-01
4.640000000000000000e+02,5.820488900000000410e-01
4.650000000000000000e+02,5.820488900000000410e-01
4.660000000000000000e+02,5.820488900000000410e-01
4.670000000000000000e+02,5.820488900000000410e-01
4.680000000000000000e+02,5.820488900000000410e-01
4.690000000000000000e+02,5.820488900000000410e-01
4.700000000000000000e+02,5.820488900000000410e-01
4.710000000000000000e+02,5.820488900000000410e-01
4.720000000000000000e+02,5.820488900000000410e-01
4.730000000000000000e+02,5.820488900000000410e-01
4.740000000000000000e+02,5.820488900000000410e-01
4.750000000000000000e+02,5.820488900000000410e-01
4.760000000000000000e+02,5.820488900000000410e-01
4.770000000000000000e+02,5.820488900000000410e-01
4.780000000000000000e+02,5.820488900000000410e-01
4.790000000000000000e+02,5.820488900000000410e-01
4.800000000000000000e+02,5.820488900000000410e-01
4.810000000000000000e+02,5.820488900000000410e-01
4.820000000000000000e+02,5.820488900000000410e-01
4.830000000000000000e+02,5.820488900000000410e-01
4.840000000000000000e+02,5.820488900000000410e-01
4.850000000000000000e+02,5.820488900000000410e-01
4.860000000000000000e+02,5.820488900000000410e-01
4.870000000000000000e+02,5.820488900000000410e-01
4.880000000000000000e+02,5.820488900000000410e-01
4.890000000000000000e+02,5.820488900000000410e-01
4.900000000000000000e+02,5.820488900000000410e-01
4.910000000000000000e+02,5.820488900000000410e-01
4.920000000000000000e+02,5.820488900000000410e-01
4.930000000000000000e+02,5.820488900000000410e-01
4.940000000000000000e+02,5.820488900000000410e-01
4.950000000000000000e+02,5.820488900000000410e-01
4.960000000000000000e+02,5.820488900000000410e-01
4.970000000000000000e+02,5.820488900000000410e-01
4.980000000000000000e+02,5.820488900000000410e-01
4.990000000000000000e+02,5.820488900000000410e-01
5.000000000000000000e+02,5.820488900000000410e-01
5.010000000000000000e+02,5.820488900000000410e-01
5.020000000000000000e+02,5.820488900000000410e-01
5.030000000000000000e+02,5.820488900000000410e-01
5.040000000000000000e+02,5.820488900000000410e-01
5.050000000000000000e+02,5.820488900000000410e-01
5.060000000000000000e+02,5.820488900000000410e-01
5.070000000000000000e+02,5.820488900000000410e-01
5.080000000000000000e+02,5.820488900000000410e-01
5.090000000000000000e+02,5.820488900000000410e-01
5.100000000000000000e+02,5.820488900000000410e-01
5.110000000000000000e+02,5.820488900000000410e-01
5.120000000000000000e+02,5.820488900000000410e-01
5.130000000000000000e+02,5.820488900000000410e-01
5.140000000000000000e+02,5.820488900000000410e-01
5.150000000000000000e+02,5.820488900000000410e-01
5.160000000000000000e+02,5.820488900000000410e-01
5.170000000000000000e+02,5.820488900000000410e-01
5.180000000000000000e+02,5.820488900000000410e-01
5.190000000000000000e+02,5.820488900000000410e-01
5.200000000000000000e+02,5.820488900000000410e-01
5.210000000000000000e+02,5.820488900000000410e-01
5.220000000000000000e+02,5.820488900000000410e-01
5.230000000000000000e+02,5.820488900000000410e-01
5.240000000000000000e+02,5.820488900000000410e-01
5.250000000000000000e+02,5.820488900000000410e-01
5.260000000000000000e+02,5.820488900000000410e-01
5.270000000000000000e+02,5.820488900000000410e-01
5.280000000000000000e+02,5.820488900000000410e-01
5.290000000000000000e+02,5.820488900000000410e-01
5.300000000000000000e+02,5.820488900000000410e-01
5.310000000000000000e+02,5.820488900000000410e-01
5.320000000000000000e+02,5.820488900000000410e-01
5.330000000000000000e+02,5.820488900000000410e-01
5.340000000000000000e+02,5.820488900000000410e-01
5.350000000000000000e+02,5.820488900000000410e-01
5.360000000000000000e+02,5.820488900000000410e-01
5.370000000000000000e+02,5.820488900000000410e-01
5.380000000000000000e+02,5.820488900000000410e-01
5.390000000000000000e+02,5.820488900000000410e-01
5.400000000000000000e+02,5.820488900000000410e-01
5.410000000000000000e+02,5.820488900000000410e-01
5.420000000000000000e+02,5.820488900000000410e-01
5.430000000000000000e+02,5.820488900000000410e-01
5.440000000000000000e+02,5.820488900000000410e-01
5.450000000000000000e+02,5.820488900000000410e-01
5.460000000000000000e+02,5.820488900000000410e-01
5.470000000000000000e+02,5.820488900000000410e-01
5.480000000000000000e+02,5.820488900000000410e-01
5.490000000000000000e+02,5.820488900000000410e-01
5.500000000000000000e+02,5.820488900000000410e-01
5.510000000000000000e+02,5.820488900000000410e-01
5.520000000000000000e+02,5.820488900000000410e-01
5.530000000000000000e+02,5.820488900000000410e-01
5.540000000000000000e+02,5.820488900000000410e-01
5.550000000000000000e+02,5.820488900000000410e-01
5.560000000000000000e+02,5.820488900000000410e-01
5.570000000000000000e+02,5.820488900000000410e-01
5.580000000000000000e+02,5.820488900000000410e-01
5.590000000000000000e+02,5.820488900000000410e-01
5.600000000000000000e+02,5.820488900000000410e-01
5.610000000000000000e+02,5.820488900000000410e-01
5.620000000000000000e+02,5.820488900000000410e-01
5.630000000000000000e+02,5.820488900000000410e-01
5.640000000000000000e+02,5.820488900000000410e-01
5.650000000000000000e+02,5.820488900000000410e-01
5.660000000000000000e+02,5.820488900000000410e-01
5.670000000000000000e+02,5.820488900000000410e-01
5.680000000000000000e+02,5.820488900000000410e-01
5.690000000000000000e+02,5.820488900000000410e-01
5.700000000000000000e+02,5.820488900000000410e-01
5.710000000000000000e+02,5.820488900000000410e-01
5.720000000000000000e+02,5.820488900000000410e-01
5.730000000000000000e+02,5.820488900000000410e-01
5.740000000000000000e+02,5.820488900000000410e-01
5.750000000000000000e+02,5.820488900000000410e-01
5.760000000000000000e+02,5.820488900000000410e-01
5.770000000000000000e+02,5.820488900000000410e-01
5.780000000000000000e+02,5.820488900000000410e-01
5.790000000000000000e+02,5.820488900000000410e-01
5.800000000000000000e+02,5.820488900000000410e-01
5.810000000000000000e+02,5.820488900000000410e-01
5.820000000000000000e+02,5.820488900000000410e-01
5.830000000000000000e+02,5.820488900000000410e-01
5.840000000000000000e+02,5.820488900000000410e-01
5.850000000000000000e+02,5.820488900000000410e-01
5.860000000000000000e+02,5.820488900000000410e-01
5.870000000000000000e+02,5.820488900000000410e-01
5.880000000000000000e+02,5.820488900000000410e-01
5.890000000000000000e+02,5.820488900000000410e-01
5.900000000000000000e+02,5.820488900000000410e-01
5.910000000000000000e+02,5.820488900000000410e-01
5.920000000000000000e+02,5.820488900000000410e-01
5.930000000000000000e+02,5.820488900000000410e-01
5.940000000000000000e+02,5.820488900000000410e-01
5.950000000000000000e+02,5.820488900000000410e-01
5.960000000000000000e+02,5.820488900000000410e-01
5.970000000000000000e+02,5.820488900000000410e-01
5.980000000000000000e+02,5.820488900000000410e-01
5.990000000000000000e+02,5.820488900000000410e-01